                               Psi4 1.9 release

  ==> Input File <==

--------------------------------------------------------------------------
MEMORY 60 GB

molecule dimer {
1 1
K      0.000000     0.000000     0.000000
--
0 1
O      3.787793     0.000000     0.000000
H      4.380964     0.755912     0.000000
H      4.380964    -0.755912     0.000000
O     -3.787793     0.000000     0.000000
H     -4.380964    -0.755912     0.000000
H     -4.380964     0.755912     0.000000

units ang
no_reorient
no_com
symmetry c1
}

set {
basis        aug-cc-pVTZ
scf_type     df
}

energy("sapt2+")
--------------------------------------------------------------------------

  //              Dimer HF             //
    Molecular point group: c1
  Charge       = 1
  Multiplicity = 1
  Basis Set: AUG-CC-PVTZ
    Blend: AUG-CC-PVTZ
  Basis Set: (AUG-CC-PVTZ AUX)
    Blend: AUG-CC-PVTZ-JKFIT + DEF2-UNIVERSAL-JKFIT
  @DF-RHF Final Energy:  -751.16947602043138
    Total Energy =                       -751.1694760204314889
 Dipole X            :          0.0000000           -0.0000000            0.0000000
 Dipole Y            :          0.0000000            0.0000000            0.0000000
 Dipole Z            :         -0.0000000            0.0000000           -0.0000000
 Magnitude           :                                                    0.0000000
  //            Monomer A HF           //
    Molecular point group: c1
  Multiplicity = 1
  Basis Set: AUG-CC-PVTZ
    Blend: AUG-CC-PVTZ
  Basis Set: (AUG-CC-PVTZ AUX)
    Blend: AUG-CC-PVTZ-JKFIT + DEF2-UNIVERSAL-JKFIT
  @DF-RHF Final Energy:  -599.01750841020009
    Total Energy =                       -599.0175084101999801
  //            Monomer B HF           //
    Molecular point group: c1

    Geometry (in Angstrom), charge = 0, multiplicity = 1:

       Center              X                  Y                   Z               Mass
    ------------   -----------------  -----------------  -----------------  -----------------
      Gh(K)           0.000000000000     0.000000000000     0.000000000000    38.963706486400
         O            3.787793000000     0.000000000000     0.000000000000    15.994914619570
         H            4.380964000000     0.755912000000     0.000000000000     1.007825032230
         H            4.380964000000    -0.755912000000     0.000000000000     1.007825032230
         O           -3.787793000000     0.000000000000     0.000000000000    15.994914619570
         H           -4.380964000000    -0.755912000000     0.000000000000     1.007825032230
         H           -4.380964000000     0.755912000000     0.000000000000     1.007825032230

  Charge       = 0
  Multiplicity = 1
  Basis Set: AUG-CC-PVTZ
    Blend: AUG-CC-PVTZ
  Basis Set: (AUG-CC-PVTZ AUX)
    Blend: AUG-CC-PVTZ-JKFIT + DEF2-UNIVERSAL-JKFIT

    Orbital Energies [Eh]
    ---------------------

    Doubly Occupied:

       1A    -20.564705     2A    -20.564705     3A     -1.348789
       4A     -1.348789     5A     -0.710900     6A     -0.710899
       7A     -0.582069     8A     -0.582066     9A     -0.506740
      10A     -0.506739

  @DF-RHF Final Energy:  -152.12018856420741

   => Energetics <=

    Nuclear Repulsion Energy =             25.0980496923899601
    One-Electron Energy =                -259.5836766430722946
    Two-Electron Energy =                  82.3654383864749207
    Total Energy =                       -152.1201885642074103
 Dipole X            :          0.0000000           -0.0000000            0.0000000
 Dipole Y            :          0.0000000            0.0000000            0.0000000
 Dipole Z            :          0.0000000            0.0000000            0.0000000
 Magnitude           :                                                    0.0000000

    SAPT Results
  --------------------------------------------------------------------------------------------------------
    Electrostatics                -27.08493321 [mEh]     -16.99605218 [kcal/mol]     -71.11148234 [kJ/mol]
      Elst10,r                    -28.88553898 [mEh]     -18.12594937 [kcal/mol]     -75.83897215 [kJ/mol]
      Elst12,r                      1.80060577 [mEh]       1.12989718 [kcal/mol]       4.72748981 [kJ/mol]

    Exchange                        0.27819311 [mEh]       0.17456881 [kcal/mol]       0.73039590 [kJ/mol]
      Exch10                        0.22227208 [mEh]       0.13947783 [kcal/mol]       0.58357526 [kJ/mol]
      Exch10(S^2)                   0.22225621 [mEh]       0.13946787 [kcal/mol]       0.58353359 [kJ/mol]
      Exch11(S^2)                   0.00155754 [mEh]       0.00097737 [kcal/mol]       0.00408931 [kJ/mol]
      Exch12(S^2)                   0.05436349 [mEh]       0.03411361 [kcal/mol]       0.14273133 [kJ/mol]

    Induction                      -3.46680793 [mEh]      -2.17545482 [kcal/mol]      -9.10210296 [kJ/mol]
      Ind20,r                      -3.19376508 [mEh]      -2.00411784 [kcal/mol]      -8.38522906 [kJ/mol]
      Ind22                        -0.37026473 [mEh]      -0.23234463 [kcal/mol]      -0.97212992 [kJ/mol]
      Exch-Ind20,r                  0.16592188 [mEh]       0.10411755 [kcal/mol]       0.43562784 [kJ/mol]
      Exch-Ind22                    0.01923592 [mEh]       0.01207072 [kcal/mol]       0.05050391 [kJ/mol]
      delta HF,r (2)               -0.08793592 [mEh]      -0.05518062 [kcal/mol]      -0.23087573 [kJ/mol]

    Dispersion                     -0.51864476 [mEh]      -0.32545450 [kcal/mol]      -1.36170164 [kJ/mol]
      Disp20                       -0.53490476 [mEh]      -0.33565780 [kcal/mol]      -1.40439225 [kJ/mol]
      Disp21                        0.07743308 [mEh]       0.04858999 [kcal/mol]       0.20330052 [kJ/mol]
      Disp22 (SDQ)                 -0.00819516 [mEh]      -0.00514254 [kcal/mol]      -0.02151639 [kJ/mol]
      Disp22 (T)                   -0.05801133 [mEh]      -0.03640266 [kcal/mol]      -0.15230873 [kJ/mol]
      Est. Disp22 (T)              -0.06165973 [mEh]      -0.03869207 [kcal/mol]      -0.16188761 [kJ/mol]
      Exch-Disp20                   0.00868181 [mEh]       0.00544792 [kcal/mol]       0.02279409 [kJ/mol]

  Total HF                        -31.77904602 [mEh]     -19.94165245 [kcal/mol]     -83.43587384 [kJ/mol]
  Total SAPT0                     -32.30526897 [mEh]     -20.27186233 [kcal/mol]     -84.81747200 [kJ/mol]
  Total SAPT2                     -30.79977098 [mEh]     -19.32714808 [kcal/mol]     -80.86478755 [kJ/mol]
  Total SAPT2+                    -30.79219279 [mEh]     -19.32239269 [kcal/mol]     -80.84489103 [kJ/mol]

  Special recipe for scaled SAPT0 (see Manual):
    Electrostatics sSAPT0         -28.88553898 [mEh]     -18.12594937 [kcal/mol]     -75.83897215 [kJ/mol]
    Exchange sSAPT0                 0.22227208 [mEh]       0.13947783 [kcal/mol]       0.58357526 [kJ/mol]
    Induction sSAPT0               -3.11574357 [mEh]      -1.95515861 [kcal/mol]      -8.18038362 [kJ/mol]
    Dispersion sSAPT0              -0.52622109 [mEh]      -0.33020872 [kcal/mol]      -1.38159327 [kJ/mol]
  Total sSAPT0                    -32.30523156 [mEh]     -20.27183886 [kcal/mol]     -84.81737378 [kJ/mol]
  --------------------------------------------------------------------------------------------------------

*** Psi4 exiting successfully. Buy a developer a beer!
