                               Psi4 1.9 release

  ==> Input File <==

--------------------------------------------------------------------------
MEMORY 60 GB

molecule dimer {
1 1
K      0.000000     0.000000     0.000000
--
0 1
O      3.282754     0.000000     0.000000
H      3.875924     0.755912     0.000000
H      3.875924    -0.755912     0.000000
O     -3.282754     0.000000     0.000000
H     -3.875924    -0.755912     0.000000
H     -3.875924     0.755912     0.000000

units ang
no_reorient
no_com
symmetry c1
}

set {
basis        aug-cc-pVTZ
scf_type     df
}

energy("sapt2+")
--------------------------------------------------------------------------

  //              Dimer HF             //
    Molecular point group: c1
  Charge       = 1
  Multiplicity = 1
  Basis Set: AUG-CC-PVTZ
    Blend: AUG-CC-PVTZ
  Basis Set: (AUG-CC-PVTZ AUX)
    Blend: AUG-CC-PVTZ-JKFIT + DEF2-UNIVERSAL-JKFIT
  @DF-RHF Final Energy:  -751.17932092419312
    Total Energy =                       -751.1793209241932345
 Dipole X            :         -0.0000000           -0.0000000           -0.0000000
 Dipole Y            :          0.0000000            0.0000000            0.0000000
 Dipole Z            :         -0.0000000            0.0000000           -0.0000000
 Magnitude           :                                                    0.0000000
  //            Monomer A HF           //
    Molecular point group: c1
  Multiplicity = 1
  Basis Set: AUG-CC-PVTZ
    Blend: AUG-CC-PVTZ
  Basis Set: (AUG-CC-PVTZ AUX)
    Blend: AUG-CC-PVTZ-JKFIT + DEF2-UNIVERSAL-JKFIT
  @DF-RHF Final Energy:  -599.01750896226906
    Total Energy =                       -599.0175089622689484
  //            Monomer B HF           //
    Molecular point group: c1

    Geometry (in Angstrom), charge = 0, multiplicity = 1:

       Center              X                  Y                   Z               Mass
    ------------   -----------------  -----------------  -----------------  -----------------
      Gh(K)           0.000000000000     0.000000000000     0.000000000000    38.963706486400
         O            3.282754000000     0.000000000000     0.000000000000    15.994914619570
         H            3.875924000000     0.755912000000     0.000000000000     1.007825032230
         H            3.875924000000    -0.755912000000     0.000000000000     1.007825032230
         O           -3.282754000000     0.000000000000     0.000000000000    15.994914619570
         H           -3.875924000000    -0.755912000000     0.000000000000     1.007825032230
         H           -3.875924000000     0.755912000000     0.000000000000     1.007825032230

  Charge       = 0
  Multiplicity = 1
  Basis Set: AUG-CC-PVTZ
    Blend: AUG-CC-PVTZ
  Basis Set: (AUG-CC-PVTZ AUX)
    Blend: AUG-CC-PVTZ-JKFIT + DEF2-UNIVERSAL-JKFIT

    Orbital Energies [Eh]
    ---------------------

    Doubly Occupied:

       1A    -20.563620     2A    -20.563620     3A     -1.347700
       4A     -1.347700     5A     -0.709817     6A     -0.709815
       7A     -0.580905     8A     -0.580879     9A     -0.505628
      10A     -0.505625

  @DF-RHF Final Energy:  -152.11999958813263

   => Energetics <=

    Nuclear Repulsion Energy =             26.1047916810888090
    One-Electron Energy =                -261.6189672195176854
    Two-Electron Energy =                  83.3941759502962441
    Total Energy =                       -152.1199995881326288
 Dipole X            :         -0.0000000           -0.0000000           -0.0000000
 Dipole Y            :          0.0000000            0.0000000            0.0000000
 Dipole Z            :         -0.0000000            0.0000000           -0.0000000
 Magnitude           :                                                    0.0000000

    SAPT Results
  --------------------------------------------------------------------------------------------------------
    Electrostatics                -35.85258348 [mEh]     -22.49783579 [kcal/mol]     -94.13094496 [kJ/mol]
      Elst10,r                    -38.11457132 [mEh]     -23.91725460 [kcal/mol]    -100.06979323 [kJ/mol]
      Elst12,r                      2.26198784 [mEh]       1.41941880 [kcal/mol]       5.93884826 [kJ/mol]

    Exchange                        1.95888356 [mEh]       1.22921799 [kcal/mol]       5.14304807 [kJ/mol]
      Exch10                        1.65847613 [mEh]       1.04070948 [kcal/mol]       4.35432847 [kJ/mol]
      Exch10(S^2)                   1.65770546 [mEh]       1.04022588 [kcal/mol]       4.35230509 [kJ/mol]
      Exch11(S^2)                   0.00775860 [mEh]       0.00486859 [kcal/mol]       0.02037019 [kJ/mol]
      Exch12(S^2)                   0.29264883 [mEh]       0.18363992 [kcal/mol]       0.76834941 [kJ/mol]

    Induction                      -6.04795687 [mEh]      -3.79515023 [kcal/mol]     -15.87890856 [kJ/mol]
      Ind20,r                      -6.46588459 [mEh]      -4.05740384 [kcal/mol]     -16.97617765 [kJ/mol]
      Ind22                        -0.85512666 [mEh]      -0.53660008 [kcal/mol]      -2.24513475 [kJ/mol]
      Exch-Ind20,r                  1.23588526 [mEh]       0.77552971 [kcal/mol]       3.24481629 [kJ/mol]
      Exch-Ind22                    0.16344839 [mEh]       0.10256541 [kcal/mol]       0.42913369 [kJ/mol]
      delta HF,r (2)               -0.12627926 [mEh]      -0.07924143 [kcal/mol]      -0.33154615 [kJ/mol]

    Dispersion                     -1.25584716 [mEh]      -0.78805599 [kcal/mol]      -3.29722626 [kJ/mol]
      Disp20                       -1.33218985 [mEh]      -0.83596175 [kcal/mol]      -3.49766398 [kJ/mol]
      Disp21                        0.17922002 [mEh]       0.11246226 [kcal/mol]       0.47054208 [kJ/mol]
      Disp22 (SDQ)                 -0.01543479 [mEh]      -0.00968548 [kcal/mol]      -0.04052404 [kJ/mol]
      Disp22 (T)                   -0.13776876 [mEh]      -0.08645120 [kcal/mol]      -0.36171184 [kJ/mol]
      Est. Disp22 (T)              -0.14912367 [mEh]      -0.09357652 [kcal/mol]      -0.39152415 [kJ/mol]
      Exch-Disp20                   0.06168115 [mEh]       0.03870550 [kcal/mol]       0.16194383 [kJ/mol]

  Total HF                        -41.81237379 [mEh]     -26.23766068 [kcal/mol]    -109.77837227 [kJ/mol]
  Total SAPT0                     -43.08288250 [mEh]     -27.03491693 [kcal/mol]    -113.11409242 [kJ/mol]
  Total SAPT2                     -41.21216550 [mEh]     -25.86102428 [kcal/mol]    -108.20252561 [kJ/mol]
  Total SAPT2+                    -41.19750395 [mEh]     -25.85182402 [kcal/mol]    -108.16403171 [kJ/mol]

  Special recipe for scaled SAPT0 (see Manual):
    Electrostatics sSAPT0         -38.11457132 [mEh]     -23.91725460 [kcal/mol]    -100.06979323 [kJ/mol]
    Exchange sSAPT0                 1.65847613 [mEh]       1.04070948 [kcal/mol]       4.35432847 [kJ/mol]
    Induction sSAPT0               -5.35455411 [mEh]      -3.36003343 [kcal/mol]     -14.05837987 [kJ/mol]
    Dispersion sSAPT0              -1.27042264 [mEh]      -0.79720224 [kcal/mol]      -3.33549418 [kJ/mol]
  Total sSAPT0                    -43.08107195 [mEh]     -27.03378079 [kcal/mol]    -113.10933881 [kJ/mol]
  --------------------------------------------------------------------------------------------------------

*** Psi4 exiting successfully. Buy a developer a beer!
