                               Psi4 1.9 release

  ==> Input File <==

--------------------------------------------------------------------------
MEMORY 60 GB

molecule dimer {
1 1
K      0.000000     0.000000     0.000000
--
0 1
O      2.398935     0.000000     0.000000
H      2.992106     0.755912     0.000000
H      2.992106    -0.755912     0.000000
O     -2.398935     0.000000     0.000000
H     -2.992106    -0.755912     0.000000
H     -2.992106     0.755912     0.000000

units ang
no_reorient
no_com
symmetry c1
}

set {
basis        aug-cc-pVTZ
scf_type     df
}

energy("sapt2+")
--------------------------------------------------------------------------

  //              Dimer HF             //
    Molecular point group: c1
  Charge       = 1
  Multiplicity = 1
  Basis Set: AUG-CC-PVTZ
    Blend: AUG-CC-PVTZ
  Basis Set: (AUG-CC-PVTZ AUX)
    Blend: AUG-CC-PVTZ-JKFIT + DEF2-UNIVERSAL-JKFIT
  @DF-RHF Final Energy:  -751.17887374863881
    Total Energy =                       -751.1788737486388072
 Dipole X            :         -0.0000000            0.0000000           -0.0000000
 Dipole Y            :         -0.0000000            0.0000000           -0.0000000
 Dipole Z            :         -0.0000000            0.0000000           -0.0000000
 Magnitude           :                                                    0.0000000
  //            Monomer A HF           //
    Molecular point group: c1
  Multiplicity = 1
  Basis Set: AUG-CC-PVTZ
    Blend: AUG-CC-PVTZ
  Basis Set: (AUG-CC-PVTZ AUX)
    Blend: AUG-CC-PVTZ-JKFIT + DEF2-UNIVERSAL-JKFIT
  @DF-RHF Final Energy:  -599.01751154924716
    Total Energy =                       -599.0175115492471605
  //            Monomer B HF           //
    Molecular point group: c1

    Geometry (in Angstrom), charge = 0, multiplicity = 1:

       Center              X                  Y                   Z               Mass
    ------------   -----------------  -----------------  -----------------  -----------------
      Gh(K)           0.000000000000     0.000000000000     0.000000000000    38.963706486400
         O            2.398935000000     0.000000000000     0.000000000000    15.994914619570
         H            2.992106000000     0.755912000000     0.000000000000     1.007825032230
         H            2.992106000000    -0.755912000000     0.000000000000     1.007825032230
         O           -2.398935000000     0.000000000000     0.000000000000    15.994914619570
         H           -2.992106000000    -0.755912000000     0.000000000000     1.007825032230
         H           -2.992106000000     0.755912000000     0.000000000000     1.007825032230

  Charge       = 0
  Multiplicity = 1
  Basis Set: AUG-CC-PVTZ
    Blend: AUG-CC-PVTZ
  Basis Set: (AUG-CC-PVTZ AUX)
    Blend: AUG-CC-PVTZ-JKFIT + DEF2-UNIVERSAL-JKFIT

    Orbital Energies [Eh]
    ---------------------

    Doubly Occupied:

       1A    -20.560038     2A    -20.560037     3A     -1.344109
       4A     -1.344095     5A     -0.706259     6A     -0.706235
       7A     -0.577331     8A     -0.576454     9A     -0.502019
      10A     -0.501882

  @DF-RHF Final Energy:  -152.11920661575550

   => Energetics <=

    Nuclear Repulsion Energy =             28.8412799572071776
    One-Electron Energy =                -267.1640569576216535
    Two-Electron Energy =                  86.2035703846589882
    Total Energy =                       -152.1192066157555018
 Dipole X            :         -0.0000000            0.0000000           -0.0000000
 Dipole Y            :          0.0000000            0.0000000            0.0000000
 Dipole Z            :         -0.0000000            0.0000000           -0.0000000
 Magnitude           :                                                    0.0000000

    SAPT Results
  --------------------------------------------------------------------------------------------------------
    Electrostatics                -77.87945504 [mEh]     -48.87009585 [kcal/mol]    -204.47248105 [kJ/mol]
      Elst10,r                    -80.60934952 [mEh]     -50.58313050 [kcal/mol]    -211.63981800 [kJ/mol]
      Elst12,r                      2.72989447 [mEh]       1.71303465 [kcal/mol]       7.16733696 [kJ/mol]

    Exchange                       58.19922454 [mEh]      36.52056476 [kcal/mol]     152.80204297 [kJ/mol]
      Exch10                       54.52673164 [mEh]      34.21604068 [kcal/mol]     143.15991420 [kJ/mol]
      Exch10(S^2)                  53.90586923 [mEh]      33.82644363 [kcal/mol]     141.52984016 [kJ/mol]
      Exch11(S^2)                   0.05344645 [mEh]       0.03353815 [kcal/mol]       0.14032363 [kJ/mol]
      Exch12(S^2)                   3.61904645 [mEh]       2.27098593 [kcal/mol]       9.50180514 [kJ/mol]

    Induction                     -18.20174205 [mEh]     -11.42176558 [kcal/mol]     -47.78866717 [kJ/mol]
      Ind20,r                     -57.37299743 [mEh]     -36.00209943 [kcal/mol]    -150.63278401 [kJ/mol]
      Ind22                        -7.96677096 [mEh]      -4.99922425 [kcal/mol]     -20.91675427 [kJ/mol]
      Exch-Ind20,r                 42.04253578 [mEh]      26.38208950 [kcal/mol]     110.38266249 [kJ/mol]
      Exch-Ind22                    5.83799467 [mEh]       3.66339696 [kcal/mol]      15.32765289 [kJ/mol]
      delta HF,r (2)               -0.74250411 [mEh]      -0.46592836 [kcal/mol]      -1.94944427 [kJ/mol]

    Dispersion                     -8.10714025 [mEh]      -5.08730731 [kcal/mol]     -21.28529380 [kJ/mol]
      Disp20                      -10.16714900 [mEh]      -6.37998232 [kcal/mol]     -26.69384602 [kJ/mol]
      Disp21                        1.26001639 [mEh]       0.79067222 [kcal/mol]       3.30817257 [kJ/mol]
      Disp22 (SDQ)                 -0.05090771 [mEh]      -0.03194507 [kcal/mol]      -0.13365818 [kJ/mol]
      Disp22 (T)                   -0.93643515 [mEh]      -0.58762193 [kcal/mol]      -2.45861014 [kJ/mol]
      Est. Disp22 (T)              -1.03927159 [mEh]      -0.65215277 [kcal/mol]      -2.72860717 [kJ/mol]
      Exch-Disp20                   1.89017166 [mEh]       1.18610062 [kcal/mol]       4.96264500 [kJ/mol]

  Total HF                        -42.15558364 [mEh]     -26.45302810 [kcal/mol]    -110.67946959 [kJ/mol]
  Total SAPT0                     -50.43256098 [mEh]     -31.64690980 [kcal/mol]    -132.41067061 [kJ/mol]
  Total SAPT2                     -46.15894990 [mEh]     -28.96517836 [kcal/mol]    -121.19030627 [kJ/mol]
  Total SAPT2+                    -45.98911281 [mEh]     -28.85860398 [kcal/mol]    -120.74439905 [kJ/mol]

  Special recipe for scaled SAPT0 (see Manual):
    Electrostatics sSAPT0         -80.60934952 [mEh]     -50.58313050 [kcal/mol]    -211.63981800 [kJ/mol]
    Exchange sSAPT0                54.52673164 [mEh]      34.21604068 [kcal/mol]     143.15991420 [kJ/mol]
    Induction sSAPT0              -14.60349188 [mEh]      -9.16382950 [kcal/mol]     -38.34146264 [kJ/mol]
    Dispersion sSAPT0              -8.21091192 [mEh]      -5.15242502 [kcal/mol]     -21.55774628 [kJ/mol]
  Total sSAPT0                    -48.89702167 [mEh]     -30.68334434 [kcal/mol]    -128.37911272 [kJ/mol]
  --------------------------------------------------------------------------------------------------------

*** Psi4 exiting successfully. Buy a developer a beer!
