                               Psi4 1.9 release

  ==> Input File <==

--------------------------------------------------------------------------
MEMORY 60 GB

molecule dimer {
1 1
K      0.000000     0.000000     0.000000
--
0 1
O      2.651455     0.000000     0.000000
H      3.244626     0.755912     0.000000
H      3.244626    -0.755912     0.000000
O     -2.651455     0.000000     0.000000
H     -3.244626    -0.755912     0.000000
H     -3.244626     0.755912     0.000000

units ang
no_reorient
no_com
symmetry c1
}

set {
basis        aug-cc-pVTZ
scf_type     df
}

energy("sapt2+")
--------------------------------------------------------------------------

  //              Dimer HF             //
    Molecular point group: c1
  Charge       = 1
  Multiplicity = 1
  Basis Set: AUG-CC-PVTZ
    Blend: AUG-CC-PVTZ
  Basis Set: (AUG-CC-PVTZ AUX)
    Blend: AUG-CC-PVTZ-JKFIT + DEF2-UNIVERSAL-JKFIT
  @DF-RHF Final Energy:  -751.18878217394467
    Total Energy =                       -751.1887821739446736
 Dipole X            :          0.0000000           -0.0000000            0.0000000
 Dipole Y            :         -0.0000000            0.0000000           -0.0000000
 Dipole Z            :          0.0000000            0.0000000            0.0000000
 Magnitude           :                                                    0.0000000
  //            Monomer A HF           //
    Molecular point group: c1
  Multiplicity = 1
  Basis Set: AUG-CC-PVTZ
    Blend: AUG-CC-PVTZ
  Basis Set: (AUG-CC-PVTZ AUX)
    Blend: AUG-CC-PVTZ-JKFIT + DEF2-UNIVERSAL-JKFIT
  @DF-RHF Final Energy:  -599.01751075260313
    Total Energy =                       -599.0175107526031297
  //            Monomer B HF           //
    Molecular point group: c1

    Geometry (in Angstrom), charge = 0, multiplicity = 1:

       Center              X                  Y                   Z               Mass
    ------------   -----------------  -----------------  -----------------  -----------------
      Gh(K)           0.000000000000     0.000000000000     0.000000000000    38.963706486400
         O            2.651455000000     0.000000000000     0.000000000000    15.994914619570
         H            3.244626000000     0.755912000000     0.000000000000     1.007825032230
         H            3.244626000000    -0.755912000000     0.000000000000     1.007825032230
         O           -2.651455000000     0.000000000000     0.000000000000    15.994914619570
         H           -3.244626000000    -0.755912000000     0.000000000000     1.007825032230
         H           -3.244626000000     0.755912000000     0.000000000000     1.007825032230

  Charge       = 0
  Multiplicity = 1
  Basis Set: AUG-CC-PVTZ
    Blend: AUG-CC-PVTZ
  Basis Set: (AUG-CC-PVTZ AUX)
    Blend: AUG-CC-PVTZ-JKFIT + DEF2-UNIVERSAL-JKFIT

    Orbital Energies [Eh]
    ---------------------

    Doubly Occupied:

       1A    -20.561388     2A    -20.561387     3A     -1.345461
       4A     -1.345458     5A     -0.707596     6A     -0.707587
       7A     -0.578590     8A     -0.578258     9A     -0.503364
      10A     -0.503313

  @DF-RHF Final Energy:  -152.11953536676094

   => Energetics <=

    Nuclear Repulsion Energy =             27.8806729833372344
    One-Electron Energy =                -265.2156136773122626
    Two-Electron Energy =                  85.2154053272140573
    Total Energy =                       -152.1195353667609709
 Dipole X            :          0.0000000           -0.0000000            0.0000000
 Dipole Y            :         -0.0000000            0.0000000           -0.0000000
 Dipole Z            :          0.0000000            0.0000000            0.0000000
 Magnitude           :                                                    0.0000000

    SAPT Results
  --------------------------------------------------------------------------------------------------------
    Electrostatics                -58.01276353 [mEh]     -36.40355872 [kcal/mol]    -152.31248967 [kJ/mol]
      Elst10,r                    -60.77626883 [mEh]     -38.13768447 [kcal/mol]    -159.56807183 [kJ/mol]
      Elst12,r                      2.76350530 [mEh]       1.73412576 [kcal/mol]       7.25558216 [kJ/mol]

    Exchange                       22.29575614 [mEh]      13.99079820 [kcal/mol]      58.53749968 [kJ/mol]
      Exch10                       20.30331018 [mEh]      12.74051949 [kcal/mol]      53.30633353 [kJ/mol]
      Exch10(S^2)                  20.20837374 [mEh]      12.68094597 [kcal/mol]      53.05707794 [kJ/mol]
      Exch11(S^2)                   0.04963683 [mEh]       0.03114758 [kcal/mol]       0.13032149 [kJ/mol]
      Exch12(S^2)                   1.94280913 [mEh]       1.21913113 [kcal/mol]       5.10084467 [kJ/mol]

    Induction                     -12.89455110 [mEh]      -8.09145297 [kcal/mol]     -33.85463924 [kJ/mol]
      Ind20,r                     -26.31880811 [mEh]     -16.51530143 [kcal/mol]     -69.10002117 [kJ/mol]
      Ind22                        -3.91065995 [mEh]      -2.45397617 [kcal/mol]     -10.26743629 [kJ/mol]
      Exch-Ind20,r                 15.33908703 [mEh]       9.62542243 [kcal/mol]      40.27276744 [kJ/mol]
      Exch-Ind22                    2.27920478 [mEh]       1.43022259 [kcal/mol]       5.98405133 [kJ/mol]
      delta HF,r (2)               -0.28337484 [mEh]      -0.17782040 [kcal/mol]      -0.74400055 [kJ/mol]

    Dispersion                     -4.61798151 [mEh]      -2.89782715 [kcal/mol]     -12.12450879 [kJ/mol]
      Disp20                       -5.39559212 [mEh]      -3.38578517 [kcal/mol]     -14.16612516 [kJ/mol]
      Disp21                        0.65243113 [mEh]       0.40940671 [kcal/mol]       1.71295769 [kJ/mol]
      Disp22 (SDQ)                 -0.03499957 [mEh]      -0.02196256 [kcal/mol]      -0.09189137 [kJ/mol]
      Disp22 (T)                   -0.50614763 [mEh]      -0.31761243 [kcal/mol]      -1.32889041 [kJ/mol]
      Est. Disp22 (T)              -0.56817288 [mEh]      -0.35653386 [kcal/mol]      -1.49173768 [kJ/mol]
      Exch-Disp20                   0.72835194 [mEh]       0.45704774 [kcal/mol]       1.91228775 [kJ/mol]

  Total HF                        -51.73605458 [mEh]     -32.46486439 [kcal/mol]    -135.83299259 [kJ/mol]
  Total SAPT0                     -56.40329477 [mEh]     -35.39360182 [kcal/mol]    -148.08683001 [kJ/mol]
  Total SAPT2                     -53.27879867 [mEh]     -33.43295092 [kcal/mol]    -139.88346664 [kJ/mol]
  Total SAPT2+                    -53.22954000 [mEh]     -33.40204063 [kcal/mol]    -139.75413801 [kJ/mol]

  Special recipe for scaled SAPT0 (see Manual):
    Electrostatics sSAPT0         -60.77626883 [mEh]     -38.13768447 [kcal/mol]    -159.56807183 [kJ/mol]
    Exchange sSAPT0                20.30331018 [mEh]      12.74051949 [kcal/mol]      53.30633353 [kJ/mol]
    Induction sSAPT0              -11.04589533 [mEh]      -6.93140397 [kcal/mol]     -29.00099419 [kJ/mol]
    Dispersion sSAPT0              -4.65692676 [mEh]      -2.92226566 [kcal/mol]     -12.22675953 [kJ/mol]
  Total sSAPT0                    -56.17578075 [mEh]     -35.25083462 [kcal/mol]    -147.48949203 [kJ/mol]
  --------------------------------------------------------------------------------------------------------

*** Psi4 exiting successfully. Buy a developer a beer!
