                               Psi4 1.9 release

  ==> Input File <==

--------------------------------------------------------------------------
MEMORY 60 GB

molecule dimer {
1 1
K      0.000000     0.000000     0.000000
--
0 1
O      2.525195     0.000000     0.000000
H      3.118366     0.755912     0.000000
H      3.118366    -0.755912     0.000000
O     -2.525195     0.000000     0.000000
H     -3.118366    -0.755912     0.000000
H     -3.118366     0.755912     0.000000

units ang
no_reorient
no_com
symmetry c1
}

set {
basis        aug-cc-pVTZ
scf_type     df
}

energy("sapt2+")
--------------------------------------------------------------------------

  //              Dimer HF             //
    Molecular point group: c1
  Charge       = 1
  Multiplicity = 1
  Basis Set: AUG-CC-PVTZ
    Blend: AUG-CC-PVTZ
  Basis Set: (AUG-CC-PVTZ AUX)
    Blend: AUG-CC-PVTZ-JKFIT + DEF2-UNIVERSAL-JKFIT
  @DF-RHF Final Energy:  -751.18614707223014
    Total Energy =                       -751.1861470722301419
 Dipole X            :         -0.0000000           -0.0000000           -0.0000000
 Dipole Y            :         -0.0000000            0.0000000           -0.0000000
 Dipole Z            :         -0.0000000            0.0000000           -0.0000000
 Magnitude           :                                                    0.0000000
  //            Monomer A HF           //
    Molecular point group: c1
  Multiplicity = 1
  Basis Set: AUG-CC-PVTZ
    Blend: AUG-CC-PVTZ
  Basis Set: (AUG-CC-PVTZ AUX)
    Blend: AUG-CC-PVTZ-JKFIT + DEF2-UNIVERSAL-JKFIT
  @DF-RHF Final Energy:  -599.01751115039451
    Total Energy =                       -599.0175111503945118
  //            Monomer B HF           //
    Molecular point group: c1

    Geometry (in Angstrom), charge = 0, multiplicity = 1:

       Center              X                  Y                   Z               Mass
    ------------   -----------------  -----------------  -----------------  -----------------
      Gh(K)           0.000000000000     0.000000000000     0.000000000000    38.963706486400
         O            2.525195000000     0.000000000000     0.000000000000    15.994914619570
         H            3.118366000000     0.755912000000     0.000000000000     1.007825032230
         H            3.118366000000    -0.755912000000     0.000000000000     1.007825032230
         O           -2.525195000000     0.000000000000     0.000000000000    15.994914619570
         H           -3.118366000000    -0.755912000000     0.000000000000     1.007825032230
         H           -3.118366000000     0.755912000000     0.000000000000     1.007825032230

  Charge       = 0
  Multiplicity = 1
  Basis Set: AUG-CC-PVTZ
    Blend: AUG-CC-PVTZ
  Basis Set: (AUG-CC-PVTZ AUX)
    Blend: AUG-CC-PVTZ-JKFIT + DEF2-UNIVERSAL-JKFIT

    Orbital Energies [Eh]
    ---------------------

    Doubly Occupied:

       1A    -20.560756     2A    -20.560756     3A     -1.344828
       4A     -1.344822     5A     -0.706970     6A     -0.706956
       7A     -0.577981     8A     -0.577441     9A     -0.502732
      10A     -0.502648

  @DF-RHF Final Energy:  -152.11938656976105

   => Energetics <=

    Nuclear Repulsion Energy =             28.3379514937957175
    One-Electron Energy =                -266.1428953122563144
    Two-Electron Energy =                  85.6855572486995527
    Total Energy =                       -152.1193865697610477
 Dipole X            :          0.0000000           -0.0000000            0.0000000
 Dipole Y            :         -0.0000000            0.0000000           -0.0000000
 Dipole Z            :          0.0000000            0.0000000            0.0000000
 Magnitude           :                                                    0.0000000

    SAPT Results
  --------------------------------------------------------------------------------------------------------
    Electrostatics                -66.42765351 [mEh]     -41.68398190 [kcal/mol]    -174.40578026 [kJ/mol]
      Elst10,r                    -69.20738943 [mEh]     -43.42829253 [kcal/mol]    -181.70397593 [kJ/mol]
      Elst12,r                      2.77973592 [mEh]       1.74431063 [kcal/mol]       7.29819566 [kJ/mol]

    Exchange                       36.06000939 [mEh]      22.62799751 [kcal/mol]      94.67554160 [kJ/mol]
      Exch10                       33.31033725 [mEh]      20.90255220 [kcal/mol]      87.45627841 [kJ/mol]
      Exch10(S^2)                  33.06653293 [mEh]      20.74956268 [kcal/mol]      86.81617024 [kJ/mol]
      Exch11(S^2)                   0.06113422 [mEh]       0.03836230 [kcal/mol]       0.16050788 [kJ/mol]
      Exch12(S^2)                   2.68853791 [mEh]       1.68708301 [kcal/mol]       7.05875531 [kJ/mol]

    Induction                     -15.22212647 [mEh]      -9.55202857 [kcal/mol]     -39.96568755 [kJ/mol]
      Ind20,r                     -38.26286615 [mEh]     -24.01031100 [kcal/mol]    -100.45914124 [kJ/mol]
      Ind22                        -5.55578223 [mEh]      -3.48630598 [kcal/mol]     -14.58670424 [kJ/mol]
      Exch-Ind20,r                 25.38530523 [mEh]      15.92951953 [kcal/mol]      66.64910970 [kJ/mol]
      Exch-Ind22                    3.68595565 [mEh]       2.31297209 [kcal/mol]       9.67747523 [kJ/mol]
      delta HF,r (2)               -0.47473897 [mEh]      -0.29790320 [kcal/mol]      -1.24642700 [kJ/mol]

    Dispersion                     -6.10183675 [mEh]      -3.82896037 [kcal/mol]     -16.02037018 [kJ/mol]
      Disp20                       -7.36792451 [mEh]      -4.62344243 [kcal/mol]     -19.34448314 [kJ/mol]
      Disp21                        0.89622078 [mEh]       0.56238703 [kcal/mol]       2.35302733 [kJ/mol]
      Disp22 (SDQ)                 -0.04139607 [mEh]      -0.02597642 [kcal/mol]      -0.10868536 [kJ/mol]
      Disp22 (T)                   -0.68449091 [mEh]      -0.42952453 [kcal/mol]      -1.79713064 [kJ/mol]
      Est. Disp22 (T)              -0.76533686 [mEh]      -0.48025613 [kcal/mol]      -2.00939165 [kJ/mol]
      Exch-Disp20                   1.17659991 [mEh]       0.73832759 [kcal/mol]       3.08916264 [kJ/mol]

  Total HF                        -49.24935207 [mEh]     -30.90443500 [kcal/mol]    -129.30415606 [kJ/mol]
  Total SAPT0                     -55.44067668 [mEh]     -34.78954985 [kcal/mol]    -145.55947656 [kJ/mol]
  Total SAPT2                     -51.78109520 [mEh]     -32.49312780 [kcal/mol]    -135.95124671 [kJ/mol]
  Total SAPT2+                    -51.69160735 [mEh]     -32.43697332 [kcal/mol]    -135.71629639 [kJ/mol]

  Special recipe for scaled SAPT0 (see Manual):
    Electrostatics sSAPT0         -69.20738943 [mEh]     -43.42829253 [kcal/mol]    -181.70397593 [kJ/mol]
    Exchange sSAPT0                33.31033725 [mEh]      20.90255220 [kcal/mol]      87.45627841 [kJ/mol]
    Induction sSAPT0              -12.78664106 [mEh]      -8.02373840 [kcal/mol]     -33.57132147 [kJ/mol]
    Dispersion sSAPT0              -6.16510652 [mEh]      -3.86866275 [kcal/mol]     -16.18648493 [kJ/mol]
  Total sSAPT0                    -54.84879976 [mEh]     -34.41814147 [kcal/mol]    -144.00550392 [kJ/mol]
  --------------------------------------------------------------------------------------------------------

*** Psi4 exiting successfully. Buy a developer a beer!
