                               Psi4 1.9 release

  ==> Input File <==

--------------------------------------------------------------------------
MEMORY 60 GB

molecule dimer {
1 1
K      0.000000     0.000000     0.000000
--
0 1
O      3.535273     0.000000     0.000000
H      4.128444     0.755912     0.000000
H      4.128444    -0.755912     0.000000
O     -3.535273     0.000000     0.000000
H     -4.128444    -0.755912     0.000000
H     -4.128444     0.755912     0.000000

units ang
no_reorient
no_com
symmetry c1
}

set {
basis        aug-cc-pVTZ
scf_type     df
}

energy("sapt2+")
--------------------------------------------------------------------------

  //              Dimer HF             //
    Molecular point group: c1
  Charge       = 1
  Multiplicity = 1
  Basis Set: AUG-CC-PVTZ
    Blend: AUG-CC-PVTZ
  Basis Set: (AUG-CC-PVTZ AUX)
    Blend: AUG-CC-PVTZ-JKFIT + DEF2-UNIVERSAL-JKFIT
  @DF-RHF Final Energy:  -751.17406190486804
    Total Energy =                       -751.1740619048680401
 Dipole X            :          0.0000000            0.0000000            0.0000000
 Dipole Y            :          0.0000000            0.0000000            0.0000000
 Dipole Z            :          0.0000000            0.0000000            0.0000000
 Magnitude           :                                                    0.0000000
  //            Monomer A HF           //
    Molecular point group: c1
  Multiplicity = 1
  Basis Set: AUG-CC-PVTZ
    Blend: AUG-CC-PVTZ
  Basis Set: (AUG-CC-PVTZ AUX)
    Blend: AUG-CC-PVTZ-JKFIT + DEF2-UNIVERSAL-JKFIT
  @DF-RHF Final Energy:  -599.01750866929649
    Total Energy =                       -599.0175086692964896
  //            Monomer B HF           //
    Molecular point group: c1

    Geometry (in Angstrom), charge = 0, multiplicity = 1:

       Center              X                  Y                   Z               Mass
    ------------   -----------------  -----------------  -----------------  -----------------
      Gh(K)           0.000000000000     0.000000000000     0.000000000000    38.963706486400
         O            3.535273000000     0.000000000000     0.000000000000    15.994914619570
         H            4.128444000000     0.755912000000     0.000000000000     1.007825032230
         H            4.128444000000    -0.755912000000     0.000000000000     1.007825032230
         O           -3.535273000000     0.000000000000     0.000000000000    15.994914619570
         H           -4.128444000000    -0.755912000000     0.000000000000     1.007825032230
         H           -4.128444000000     0.755912000000     0.000000000000     1.007825032230

  Charge       = 0
  Multiplicity = 1
  Basis Set: AUG-CC-PVTZ
    Blend: AUG-CC-PVTZ
  Basis Set: (AUG-CC-PVTZ AUX)
    Blend: AUG-CC-PVTZ-JKFIT + DEF2-UNIVERSAL-JKFIT

    Orbital Energies [Eh]
    ---------------------

    Doubly Occupied:

       1A    -20.564218     2A    -20.564218     3A     -1.348299
       4A     -1.348299     5A     -0.710413     6A     -0.710412
       7A     -0.581545     8A     -0.581536     9A     -0.506240
      10A     -0.506239

  @DF-RHF Final Energy:  -152.12010587644411

   => Energetics <=

    Nuclear Repulsion Energy =             25.5665755222318580
    One-Electron Energy =                -260.5305233052942526
    Two-Electron Energy =                  82.8438419066182945
    Total Energy =                       -152.1201058764440859
 Dipole X            :          0.0000000            0.0000000            0.0000000
 Dipole Y            :          0.0000000            0.0000000            0.0000000
 Dipole Z            :          0.0000000            0.0000000            0.0000000
 Magnitude           :                                                    0.0000000

    SAPT Results
  --------------------------------------------------------------------------------------------------------
    Electrostatics                -30.96214569 [mEh]     -19.42903975 [kcal/mol]     -81.29110230 [kJ/mol]
      Elst10,r                    -32.98477872 [mEh]     -20.69826114 [kcal/mol]     -86.60152459 [kJ/mol]
      Elst12,r                      2.02263303 [mEh]       1.26922139 [kcal/mol]       5.31042229 [kJ/mol]

    Exchange                        0.73706352 [mEh]       0.46251434 [kcal/mol]       1.93515999 [kJ/mol]
      Exch10                        0.60578978 [mEh]       0.38013883 [kcal/mol]       1.59050084 [kJ/mol]
      Exch10(S^2)                   0.60567954 [mEh]       0.38006965 [kcal/mol]       1.59021142 [kJ/mol]
      Exch11(S^2)                   0.00349614 [mEh]       0.00219386 [kcal/mol]       0.00917911 [kJ/mol]
      Exch12(S^2)                   0.12777760 [mEh]       0.08018165 [kcal/mol]       0.33548004 [kJ/mol]

    Induction                      -4.55404098 [mEh]      -2.85770386 [kcal/mol]     -11.95663296 [kJ/mol]
      Ind20,r                      -4.40890061 [mEh]      -2.76662690 [kcal/mol]     -11.57556697 [kJ/mol]
      Ind22                        -0.54114170 [mEh]      -0.33957154 [kcal/mol]      -1.42076734 [kJ/mol]
      Exch-Ind20,r                  0.45194395 [mEh]       0.28359911 [kcal/mol]       1.18657866 [kJ/mol]
      Exch-Ind22                    0.05547091 [mEh]       0.03480852 [kcal/mol]       0.14563885 [kJ/mol]
      delta HF,r (2)               -0.11141352 [mEh]      -0.06991304 [kcal/mol]      -0.29251615 [kJ/mol]

    Dispersion                     -0.79826030 [mEh]      -0.50091590 [kcal/mol]      -2.09583213 [kJ/mol]
      Disp20                       -0.83076829 [mEh]      -0.52131497 [kcal/mol]      -2.18118185 [kJ/mol]
      Disp21                        0.11575793 [mEh]       0.07263920 [kcal/mol]       0.30392242 [kJ/mol]
      Disp22 (SDQ)                 -0.01156734 [mEh]      -0.00725861 [kcal/mol]      -0.03037004 [kJ/mol]
      Disp22 (T)                   -0.08832689 [mEh]      -0.05542596 [kcal/mol]      -0.23190222 [kJ/mol]
      Est. Disp22 (T)              -0.09466894 [mEh]      -0.05940566 [kcal/mol]      -0.24855326 [kJ/mol]
      Exch-Disp20                   0.02298633 [mEh]       0.01442414 [kcal/mol]       0.06035060 [kJ/mol]

  Total HF                        -36.44735913 [mEh]     -22.87106315 [kcal/mol]     -95.69252821 [kJ/mol]
  Total SAPT0                     -37.25514109 [mEh]     -23.37795398 [kcal/mol]     -97.81335945 [kJ/mol]
  Total SAPT2                     -35.58690512 [mEh]     -22.33112010 [kcal/mol]     -93.43340651 [kJ/mol]
  Total SAPT2+                    -35.57738345 [mEh]     -22.32514517 [kcal/mol]     -93.40840739 [kJ/mol]

  Special recipe for scaled SAPT0 (see Manual):
    Electrostatics sSAPT0         -32.98477872 [mEh]     -20.69826114 [kcal/mol]     -86.60152459 [kJ/mol]
    Exchange sSAPT0                 0.60578978 [mEh]       0.38013883 [kcal/mol]       1.59050084 [kJ/mol]
    Induction sSAPT0               -4.06812337 [mEh]      -2.55278596 [kcal/mol]     -10.68085645 [kJ/mol]
    Dispersion sSAPT0              -0.80776941 [mEh]      -0.50688296 [kcal/mol]      -2.12079829 [kJ/mol]
  Total sSAPT0                    -37.25488172 [mEh]     -23.37779122 [kcal/mol]     -97.81267848 [kJ/mol]
  --------------------------------------------------------------------------------------------------------

*** Psi4 exiting successfully. Buy a developer a beer!
