                               Psi4 1.9 release

  ==> Input File <==

--------------------------------------------------------------------------
MEMORY 60 GB

molecule dimer {
1 1
K      0.000000     0.000000     0.000000
--
0 1
O      2.777715     0.000000     0.000000
H      3.370886     0.755912     0.000000
H      3.370886    -0.755912     0.000000
O     -2.777715     0.000000     0.000000
H     -3.370886    -0.755912     0.000000
H     -3.370886     0.755912     0.000000

units ang
no_reorient
no_com
symmetry c1
}

set {
basis        aug-cc-pVTZ
scf_type     df
}

energy("sapt2+")
--------------------------------------------------------------------------

  //              Dimer HF             //
    Molecular point group: c1
  Charge       = 1
  Multiplicity = 1
  Basis Set: AUG-CC-PVTZ
    Blend: AUG-CC-PVTZ
  Basis Set: (AUG-CC-PVTZ AUX)
    Blend: AUG-CC-PVTZ-JKFIT + DEF2-UNIVERSAL-JKFIT
  @DF-RHF Final Energy:  -751.18871109541192
    Total Energy =                       -751.1887110954119180
 Dipole X            :          0.0000000            0.0000000            0.0000000
 Dipole Y            :         -0.0000000            0.0000000           -0.0000000
 Dipole Z            :          0.0000000            0.0000000            0.0000000
 Magnitude           :                                                    0.0000000
  //            Monomer A HF           //
    Molecular point group: c1
  Multiplicity = 1
  Basis Set: AUG-CC-PVTZ
    Blend: AUG-CC-PVTZ
  Basis Set: (AUG-CC-PVTZ AUX)
    Blend: AUG-CC-PVTZ-JKFIT + DEF2-UNIVERSAL-JKFIT
  @DF-RHF Final Energy:  -599.01751035154712
    Total Energy =                       -599.0175103515471164
  //            Monomer B HF           //
    Molecular point group: c1

    Geometry (in Angstrom), charge = 0, multiplicity = 1:

       Center              X                  Y                   Z               Mass
    ------------   -----------------  -----------------  -----------------  -----------------
      Gh(K)           0.000000000000     0.000000000000     0.000000000000    38.963706486400
         O            2.777715000000     0.000000000000     0.000000000000    15.994914619570
         H            3.370886000000     0.755912000000     0.000000000000     1.007825032230
         H            3.370886000000    -0.755912000000     0.000000000000     1.007825032230
         O           -2.777715000000     0.000000000000     0.000000000000    15.994914619570
         H           -3.370886000000    -0.755912000000     0.000000000000     1.007825032230
         H           -3.370886000000     0.755912000000     0.000000000000     1.007825032230

  Charge       = 0
  Multiplicity = 1
  Basis Set: AUG-CC-PVTZ
    Blend: AUG-CC-PVTZ
  Basis Set: (AUG-CC-PVTZ AUX)
    Blend: AUG-CC-PVTZ-JKFIT + DEF2-UNIVERSAL-JKFIT

    Orbital Energies [Eh]
    ---------------------

    Doubly Occupied:

       1A    -20.561944     2A    -20.561944     3A     -1.346020
       4A     -1.346019     5A     -0.708149     6A     -0.708144
       7A     -0.579149     8A     -0.578946     9A     -0.503926
      10A     -0.503895

  @DF-RHF Final Energy:  -152.11966035492915

   => Energetics <=

    Nuclear Repulsion Energy =             27.4633899527857466
    One-Electron Energy =                -264.3698324747651895
    Two-Electron Energy =                  84.7867821670502906
    Total Energy =                       -152.1196603549291524
 Dipole X            :         -0.0000000            0.0000000           -0.0000000
 Dipole Y            :         -0.0000000            0.0000000           -0.0000000
 Dipole Z            :          0.0000000            0.0000000            0.0000000
 Magnitude           :                                                    0.0000000

    SAPT Results
  --------------------------------------------------------------------------------------------------------
    Electrostatics                -51.58551745 [mEh]     -32.37040091 [kcal/mol]    -135.43775741 [kJ/mol]
      Elst10,r                    -54.28686525 [mEh]     -34.06552225 [kcal/mol]    -142.53014509 [kJ/mol]
      Elst12,r                      2.70134780 [mEh]       1.69512134 [kcal/mol]       7.09238768 [kJ/mol]

    Exchange                       13.75925626 [mEh]       8.63406365 [kcal/mol]      36.12492232 [kJ/mol]
      Exch10                       12.34981701 [mEh]       7.74962717 [kcal/mol]      32.42444010 [kJ/mol]
      Exch10(S^2)                  12.31314019 [mEh]       7.72661212 [kcal/mol]      32.32814510 [kJ/mol]
      Exch11(S^2)                   0.03596489 [mEh]       0.02256831 [kcal/mol]       0.09442581 [kJ/mol]
      Exch12(S^2)                   1.37347435 [mEh]       0.86186817 [kcal/mol]       3.60605642 [kJ/mol]

    Induction                     -11.00688579 [mEh]      -6.90692511 [kcal/mol]     -28.89857467 [kJ/mol]
      Ind20,r                     -18.69471504 [mEh]     -11.73111080 [kcal/mol]     -49.08296757 [kJ/mol]
      Ind22                        -2.78572440 [mEh]      -1.74806845 [kcal/mol]      -7.31391840 [kJ/mol]
      Exch-Ind20,r                  9.27566565 [mEh]       5.82056807 [kcal/mol]      24.35325682 [kJ/mol]
      Exch-Ind22                    1.38217930 [mEh]       0.86733060 [kcal/mol]       3.62891125 [kJ/mol]
      delta HF,r (2)               -0.18429131 [mEh]      -0.11564454 [kcal/mol]      -0.48385676 [kJ/mol]

    Dispersion                     -3.51197599 [mEh]      -2.20379821 [kcal/mol]      -9.22069170 [kJ/mol]
      Disp20                       -3.99083563 [mEh]      -2.50428717 [kcal/mol]     -10.47793751 [kJ/mol]
      Disp21                        0.48618259 [mEh]       0.30508418 [kcal/mol]       1.27647220 [kJ/mol]
      Disp22 (SDQ)                 -0.02972921 [mEh]      -0.01865536 [kcal/mol]      -0.07805403 [kJ/mol]
      Disp22 (T)                   -0.38203716 [mEh]      -0.23973194 [kcal/mol]      -1.00303843 [kJ/mol]
      Est. Disp22 (T)              -0.42617305 [mEh]      -0.26742763 [kcal/mol]      -1.11891719 [kJ/mol]
      Exch-Disp20                   0.44857931 [mEh]       0.28148777 [kcal/mol]       1.17774483 [kJ/mol]

  Total HF                        -51.54038894 [mEh]     -32.34208234 [kcal/mol]    -135.31927251 [kJ/mol]
  Total SAPT0                     -55.08264525 [mEh]     -34.56488174 [kcal/mol]    -144.61946519 [kJ/mol]
  Total SAPT2                     -52.37540330 [mEh]     -32.86606177 [kcal/mol]    -137.51160243 [kJ/mol]
  Total SAPT2+                    -52.34512298 [mEh]     -32.84706058 [kcal/mol]    -137.43210145 [kJ/mol]

  Special recipe for scaled SAPT0 (see Manual):
    Electrostatics sSAPT0         -54.28686525 [mEh]     -34.06552225 [kcal/mol]    -142.53014509 [kJ/mol]
    Exchange sSAPT0                12.34981701 [mEh]       7.74962717 [kcal/mol]      32.42444010 [kJ/mol]
    Induction sSAPT0               -9.52020601 [mEh]      -5.97401946 [kcal/mol]     -24.99529744 [kJ/mol]
    Dispersion sSAPT0              -3.53823585 [mEh]      -2.22027652 [kcal/mol]      -9.28963695 [kJ/mol]
  Total sSAPT0                    -54.99549010 [mEh]     -34.51019105 [kcal/mol]    -144.39063937 [kJ/mol]
  --------------------------------------------------------------------------------------------------------

*** Psi4 exiting successfully. Buy a developer a beer!
