                               Psi4 1.9 release

  ==> Input File <==

--------------------------------------------------------------------------
MEMORY 60 GB

molecule dimer {
-1 1
F      2.437551     0.000000     0.000000
--
0 1
O      0.000000    -0.007351     1.810088
H     -0.603559     0.630161     1.426970
H      0.742517    -0.027506     1.118978
O      0.000000     0.007351    -1.810088
H     -0.603559    -0.630161    -1.426970
H      0.742517     0.027506    -1.118978

units ang
no_reorient
no_com
symmetry c1
}

set {
basis        aug-cc-pVTZ
scf_type     df
}

energy("sapt2+")
--------------------------------------------------------------------------

  //              Dimer HF             //
    Molecular point group: c1
  Charge       = -1
  Multiplicity = 1
  Basis Set: AUG-CC-PVTZ
    Blend: AUG-CC-PVTZ
  Basis Set: (AUG-CC-PVTZ AUX)
    Blend: AUG-CC-PVTZ-JKFIT
  @DF-RHF Final Energy:  -251.61856016960405
    Total Energy =                       -251.6185601696040521
 Dipole X            :        -45.6950868           41.9819194           -3.7131674
 Dipole Y            :          0.0000000            0.0000000            0.0000000
 Dipole Z            :         -0.0000000            0.0000000           -0.0000000
 Magnitude           :                                                    3.7131674
  //            Monomer A HF           //
    Molecular point group: c1
  Multiplicity = 1
  Basis Set: AUG-CC-PVTZ
    Blend: AUG-CC-PVTZ
  Basis Set: (AUG-CC-PVTZ AUX)
    Blend: AUG-CC-PVTZ-JKFIT
  @DF-RHF Final Energy:   -99.45091478438265
    Total Energy =                        -99.4509147843826327
  //            Monomer B HF           //
    Molecular point group: c1

    Geometry (in Angstrom), charge = 0, multiplicity = 1:

       Center              X                  Y                   Z               Mass
    ------------   -----------------  -----------------  -----------------  -----------------
      Gh(F)           2.437551000000     0.000000000000     0.000000000000    18.998403162730
         O            0.000000000000    -0.007351000000     1.810088000000    15.994914619570
         H           -0.603559000000     0.630161000000     1.426970000000     1.007825032230
         H            0.742517000000    -0.027506000000     1.118978000000     1.007825032230
         O            0.000000000000     0.007351000000    -1.810088000000    15.994914619570
         H           -0.603559000000    -0.630161000000    -1.426970000000     1.007825032230
         H            0.742517000000     0.027506000000    -1.118978000000     1.007825032230

  Charge       = 0
  Multiplicity = 1
  Basis Set: AUG-CC-PVTZ
    Blend: AUG-CC-PVTZ
  Basis Set: (AUG-CC-PVTZ AUX)
    Blend: AUG-CC-PVTZ-JKFIT

    Orbital Energies [Eh]
    ---------------------

    Doubly Occupied:

       1A    -20.586602     2A    -20.586600     3A     -1.356307
       4A     -1.353753     5A     -0.713318     6A     -0.707757
       7A     -0.604570     8A     -0.590761     9A     -0.523668
      10A     -0.520129

  @DF-RHF Final Energy:  -152.10868486977338

   => Energetics <=

    Nuclear Repulsion Energy =             33.3256140193377277
    One-Electron Energy =                -275.7816648953048571
    Two-Electron Energy =                  90.3473660061937522
    Total Energy =                       -152.1086848697733558
 Dipole X            :         -0.4047918            0.5251851            0.1203934
 Dipole Y            :          0.0000000            0.0000000            0.0000000
 Dipole Z            :          0.0000000            0.0000000            0.0000000
 Magnitude           :                                                    0.1203934

    SAPT Results
  --------------------------------------------------------------------------------------------------------
    Electrostatics                -55.37103301 [mEh]     -34.74584779 [kcal/mol]    -145.37662715 [kJ/mol]
      Elst10,r                    -55.83957851 [mEh]     -35.03986453 [kcal/mol]    -146.60679319 [kJ/mol]
      Elst12,r                      0.46854550 [mEh]       0.29401674 [kcal/mol]       1.23016604 [kJ/mol]

    Exchange                       22.92194347 [mEh]      14.38373669 [kcal/mol]      60.18155430 [kJ/mol]
      Exch10                       16.69581269 [mEh]      10.47678064 [kcal/mol]      43.83485019 [kJ/mol]
      Exch10(S^2)                  16.62857980 [mEh]      10.43459136 [kcal/mol]      43.65833025 [kJ/mol]
      Exch11(S^2)                   0.34639547 [mEh]       0.21736644 [kcal/mol]       0.90946119 [kJ/mol]
      Exch12(S^2)                   5.87973531 [mEh]       3.68958961 [kcal/mol]      15.43724292 [kJ/mol]

    Induction                     -22.91164460 [mEh]     -14.37727404 [kcal/mol]     -60.15451460 [kJ/mol]
      Ind20,r                     -21.29819344 [mEh]     -13.36481816 [kcal/mol]     -55.91839917 [kJ/mol]
      Ind22                        -4.13955187 [mEh]      -2.59760802 [kcal/mol]     -10.86839194 [kJ/mol]
      Exch-Ind20,r                  5.37481000 [mEh]       3.37274420 [kcal/mol]      14.11156171 [kJ/mol]
      Exch-Ind22                    1.04465690 [mEh]       0.65553210 [kcal/mol]       2.74274632 [kJ/mol]
      delta HF,r (2)               -3.89336619 [mEh]      -2.44312417 [kcal/mol]     -10.22203152 [kJ/mol]

    Dispersion                     -8.30041162 [mEh]      -5.20858693 [kcal/mol]     -21.79272771 [kJ/mol]
      Disp20                       -7.34977430 [mEh]      -4.61205300 [kcal/mol]     -19.29682977 [kJ/mol]
      Disp21                       -0.03996176 [mEh]      -0.02507638 [kcal/mol]      -0.10491959 [kJ/mol]
      Disp22 (SDQ)                 -0.91671643 [mEh]      -0.57524824 [kcal/mol]      -2.40683866 [kJ/mol]
      Disp22 (T)                   -1.40514141 [mEh]      -0.88173955 [kcal/mol]      -3.68919827 [kJ/mol]
      Est. Disp22 (T)              -1.68180947 [mEh]      -1.05535138 [kcal/mol]      -4.41559016 [kJ/mol]
      Exch-Disp20                   1.68785034 [mEh]       1.05914208 [kcal/mol]       4.43145046 [kJ/mol]

  Total HF                        -58.96051545 [mEh]     -36.99828202 [kcal/mol]    -154.80081198 [kJ/mol]
  Total SAPT0                     -64.62243941 [mEh]     -40.55119295 [kcal/mol]    -169.66619129 [kJ/mol]
  Total SAPT2                     -61.02265810 [mEh]     -38.29229607 [kcal/mol]    -160.21496676 [kJ/mol]
  Total SAPT2+                    -63.66114576 [mEh]     -39.94797208 [kcal/mol]    -167.14231517 [kJ/mol]

  Special recipe for scaled SAPT0 (see Manual):
    Electrostatics sSAPT0         -55.83957851 [mEh]     -35.03986453 [kcal/mol]    -146.60679319 [kJ/mol]
    Exchange sSAPT0                16.69581269 [mEh]      10.47678064 [kcal/mol]      43.83485019 [kJ/mol]
    Induction sSAPT0              -19.75129117 [mEh]     -12.39412233 [kcal/mol]     -51.85700782 [kJ/mol]
    Dispersion sSAPT0              -5.64136805 [mEh]      -3.54001190 [kcal/mol]     -14.81140979 [kJ/mol]
  Total sSAPT0                    -64.53642504 [mEh]     -40.49721812 [kcal/mol]    -169.44036061 [kJ/mol]
  --------------------------------------------------------------------------------------------------------

*** Psi4 exiting successfully. Buy a developer a beer!
