                               Psi4 1.9 release

  ==> Input File <==

--------------------------------------------------------------------------
MEMORY 60 GB

molecule dimer {
-1 1
F      2.263440     0.000000     0.000000
--
0 1
O      0.000000    -0.007351     1.810088
H     -0.603559     0.630161     1.426970
H      0.742517    -0.027506     1.118978
O      0.000000     0.007351    -1.810088
H     -0.603559    -0.630161    -1.426970
H      0.742517     0.027506    -1.118978

units ang
no_reorient
no_com
symmetry c1
}

set {
basis        aug-cc-pVTZ
scf_type     df
}

energy("sapt2+")
--------------------------------------------------------------------------

  //              Dimer HF             //
    Molecular point group: c1
  Charge       = -1
  Multiplicity = 1
  Basis Set: AUG-CC-PVTZ
    Blend: AUG-CC-PVTZ
  Basis Set: (AUG-CC-PVTZ AUX)
    Blend: AUG-CC-PVTZ-JKFIT
  @DF-RHF Final Energy:  -251.62550089168045
    Total Energy =                       -251.6255008916804456
 Dipole X            :        -42.3333351           39.0207204           -3.3126147
 Dipole Y            :          0.0000000            0.0000000            0.0000000
 Dipole Z            :          0.0000000            0.0000000            0.0000000
 Magnitude           :                                                    3.3126147
  //            Monomer A HF           //
    Molecular point group: c1
  Multiplicity = 1
  Basis Set: AUG-CC-PVTZ
    Blend: AUG-CC-PVTZ
  Basis Set: (AUG-CC-PVTZ AUX)
    Blend: AUG-CC-PVTZ-JKFIT
  @DF-RHF Final Energy:   -99.45092215009140
    Total Energy =                        -99.4509221500914151
  //            Monomer B HF           //
    Molecular point group: c1

    Geometry (in Angstrom), charge = 0, multiplicity = 1:

       Center              X                  Y                   Z               Mass
    ------------   -----------------  -----------------  -----------------  -----------------
      Gh(F)           2.263440000000     0.000000000000     0.000000000000    18.998403162730
         O            0.000000000000    -0.007351000000     1.810088000000    15.994914619570
         H           -0.603559000000     0.630161000000     1.426970000000     1.007825032230
         H            0.742517000000    -0.027506000000     1.118978000000     1.007825032230
         O            0.000000000000     0.007351000000    -1.810088000000    15.994914619570
         H           -0.603559000000    -0.630161000000    -1.426970000000     1.007825032230
         H            0.742517000000     0.027506000000    -1.118978000000     1.007825032230

  Charge       = 0
  Multiplicity = 1
  Basis Set: AUG-CC-PVTZ
    Blend: AUG-CC-PVTZ
  Basis Set: (AUG-CC-PVTZ AUX)
    Blend: AUG-CC-PVTZ-JKFIT

    Orbital Energies [Eh]
    ---------------------

    Doubly Occupied:

       1A    -20.586599     2A    -20.586597     3A     -1.356304
       4A     -1.353751     5A     -0.713317     6A     -0.707755
       7A     -0.604568     8A     -0.590759     9A     -0.523667
      10A     -0.520127

  @DF-RHF Final Energy:  -152.10869001050793

   => Energetics <=

    Nuclear Repulsion Energy =             33.3256140193377277
    One-Electron Energy =                -275.7817169067042187
    Two-Electron Energy =                  90.3474128768585416
    Total Energy =                       -152.1086900105079280
 Dipole X            :         -0.4047571            0.5251851            0.1204280
 Dipole Y            :          0.0000000            0.0000000            0.0000000
 Dipole Z            :          0.0000000            0.0000000            0.0000000
 Magnitude           :                                                    0.1204280

    SAPT Results
  --------------------------------------------------------------------------------------------------------
    Electrostatics                -66.47448401 [mEh]     -41.71336848 [kcal/mol]    -174.52873373 [kJ/mol]
      Elst10,r                    -66.79856617 [mEh]     -41.91673311 [kcal/mol]    -175.37961132 [kJ/mol]
      Elst12,r                      0.32408216 [mEh]       0.20336462 [kcal/mol]       0.85087758 [kJ/mol]

    Exchange                       35.30909760 [mEh]      22.15679326 [kcal/mol]      92.70402299 [kJ/mol]
      Exch10                       26.57252193 [mEh]      16.67450926 [kcal/mol]      69.76614672 [kJ/mol]
      Exch10(S^2)                  26.42593455 [mEh]      16.58252429 [kcal/mol]      69.38128161 [kJ/mol]
      Exch11(S^2)                   0.49956247 [mEh]       0.31348018 [kcal/mol]       1.31160109 [kJ/mol]
      Exch12(S^2)                   8.23701320 [mEh]       5.16880382 [kcal/mol]      21.62627518 [kJ/mol]

    Induction                     -29.57029953 [mEh]     -18.55564310 [kcal/mol]     -77.63681071 [kJ/mol]
      Ind20,r                     -27.93710748 [mEh]     -17.53079961 [kcal/mol]     -73.34886559 [kJ/mol]
      Ind22                        -5.53638168 [mEh]      -3.47413196 [kcal/mol]     -14.53576810 [kJ/mol]
      Exch-Ind20,r                  8.21892297 [mEh]       5.15745203 [kcal/mol]      21.57877929 [kJ/mol]
      Exch-Ind22                    1.62876900 [mEh]       1.02206798 [kcal/mol]       4.27633242 [kJ/mol]
      delta HF,r (2)               -5.94450233 [mEh]      -3.73023153 [kcal/mol]     -15.60728873 [kJ/mol]

    Dispersion                    -10.87843894 [mEh]      -6.82632349 [kcal/mol]     -28.56133750 [kJ/mol]
      Disp20                      -10.04259629 [mEh]      -6.30182431 [kcal/mol]     -26.36683293 [kJ/mol]
      Disp21                        0.05600337 [mEh]       0.03514264 [kcal/mol]       0.14703682 [kJ/mol]
      Disp22 (SDQ)                 -1.17178774 [mEh]      -0.73530791 [kcal/mol]      -3.07652828 [kJ/mol]
      Disp22 (T)                   -1.86336622 [mEh]      -1.16927996 [kcal/mol]      -4.89226734 [kJ/mol]
      Est. Disp22 (T)              -2.22857090 [mEh]      -1.39844936 [kcal/mol]      -5.85111210 [kJ/mol]
      Exch-Disp20                   2.50851263 [mEh]       1.57411544 [kcal/mol]       6.58609899 [kJ/mol]

  Total HF                        -65.88873108 [mEh]     -41.34580297 [kcal/mol]    -172.99083962 [kJ/mol]
  Total SAPT0                     -73.42281474 [mEh]     -46.07351184 [kcal/mol]    -192.77157355 [kJ/mol]
  Total SAPT2                     -68.26976960 [mEh]     -42.83992720 [kcal/mol]    -179.24225539 [kJ/mol]
  Total SAPT2+                    -71.61412488 [mEh]     -44.93854182 [kcal/mol]    -188.02285896 [kJ/mol]

  Special recipe for scaled SAPT0 (see Manual):
    Electrostatics sSAPT0         -66.79856617 [mEh]     -41.91673311 [kcal/mol]    -175.37961132 [kJ/mol]
    Exchange sSAPT0                26.57252193 [mEh]      16.67450926 [kcal/mol]      69.76614672 [kJ/mol]
    Induction sSAPT0              -25.52515311 [mEh]     -16.01727539 [kcal/mol]     -67.01628025 [kJ/mol]
    Dispersion sSAPT0              -7.49210674 [mEh]      -4.70136796 [kcal/mol]     -19.67052353 [kJ/mol]
  Total sSAPT0                    -73.24330408 [mEh]     -45.96086720 [kcal/mol]    -192.30026837 [kJ/mol]
  --------------------------------------------------------------------------------------------------------

*** Psi4 exiting successfully. Buy a developer a beer!
