                               Psi4 1.9 release

  ==> Input File <==

--------------------------------------------------------------------------
MEMORY 60 GB

molecule dimer {
-1 1
F      1.828163     0.000000     0.000000
--
0 1
O      0.000000    -0.007351     1.810088
H     -0.603559     0.630161     1.426970
H      0.742517    -0.027506     1.118978
O      0.000000     0.007351    -1.810088
H     -0.603559    -0.630161    -1.426970
H      0.742517     0.027506    -1.118978

units ang
no_reorient
no_com
symmetry c1
}

set {
basis        aug-cc-pVTZ
scf_type     df
}

energy("sapt2+")
--------------------------------------------------------------------------

  //              Dimer HF             //
    Molecular point group: c1
  Charge       = -1
  Multiplicity = 1
  Basis Set: AUG-CC-PVTZ
    Blend: AUG-CC-PVTZ
  Basis Set: (AUG-CC-PVTZ AUX)
    Blend: AUG-CC-PVTZ-JKFIT
  @DF-RHF Final Energy:  -251.63797637307758
    Total Energy =                       -251.6379763730775778
 Dipole X            :        -33.9298507           31.6177316           -2.3121192
 Dipole Y            :          0.0000000            0.0000000            0.0000000
 Dipole Z            :         -0.0000000            0.0000000           -0.0000000
 Magnitude           :                                                    2.3121192
  //            Monomer A HF           //
    Molecular point group: c1
  Multiplicity = 1
  Basis Set: AUG-CC-PVTZ
    Blend: AUG-CC-PVTZ
  Basis Set: (AUG-CC-PVTZ AUX)
    Blend: AUG-CC-PVTZ-JKFIT
  @DF-RHF Final Energy:   -99.45098203386696
    Total Energy =                        -99.4509820338669783
  //            Monomer B HF           //
    Molecular point group: c1

    Geometry (in Angstrom), charge = 0, multiplicity = 1:

       Center              X                  Y                   Z               Mass
    ------------   -----------------  -----------------  -----------------  -----------------
      Gh(F)           1.828163000000     0.000000000000     0.000000000000    18.998403162730
         O            0.000000000000    -0.007351000000     1.810088000000    15.994914619570
         H           -0.603559000000     0.630161000000     1.426970000000     1.007825032230
         H            0.742517000000    -0.027506000000     1.118978000000     1.007825032230
         O            0.000000000000     0.007351000000    -1.810088000000    15.994914619570
         H           -0.603559000000    -0.630161000000    -1.426970000000     1.007825032230
         H            0.742517000000     0.027506000000    -1.118978000000     1.007825032230

  Charge       = 0
  Multiplicity = 1
  Basis Set: AUG-CC-PVTZ
    Blend: AUG-CC-PVTZ
  Basis Set: (AUG-CC-PVTZ AUX)
    Blend: AUG-CC-PVTZ-JKFIT

    Orbital Energies [Eh]
    ---------------------

    Doubly Occupied:

       1A    -20.586579     2A    -20.586577     3A     -1.356293
       4A     -1.353740     5A     -0.713311     6A     -0.707751
       7A     -0.604563     8A     -0.590754     9A     -0.523660
      10A     -0.520119

  @DF-RHF Final Energy:  -152.10872539632626

   => Energetics <=

    Nuclear Repulsion Energy =             33.3256140193377277
    One-Electron Energy =                -275.7819807147470215
    Two-Electron Energy =                  90.3476412990830227
    Total Energy =                       -152.1087253963262640
 Dipole X            :         -0.4046562            0.5251851            0.1205289
 Dipole Y            :          0.0000000            0.0000000            0.0000000
 Dipole Z            :         -0.0000000            0.0000000           -0.0000000
 Magnitude           :                                                    0.1205289

    SAPT Results
  --------------------------------------------------------------------------------------------------------
    Electrostatics               -108.30965148 [mEh]     -67.96533240 [kcal/mol]    -284.36695077 [kJ/mol]
      Elst10,r                   -108.02225889 [mEh]     -67.78499083 [kcal/mol]    -283.61240164 [kJ/mol]
      Elst12,r                     -0.28739259 [mEh]      -0.18034157 [kcal/mol]      -0.75454913 [kJ/mol]

    Exchange                       98.01290117 [mEh]      61.50402404 [kcal/mol]     257.33283658 [kJ/mol]
      Exch10                       79.26988083 [mEh]      49.74260120 [kcal/mol]     208.12304344 [kJ/mol]
      Exch10(S^2)                  78.31069659 [mEh]      49.14070401 [kcal/mol]     205.60470557 [kJ/mol]
      Exch11(S^2)                   1.08341252 [mEh]       0.67985162 [kcal/mol]       2.84449918 [kJ/mol]
      Exch12(S^2)                  17.65960783 [mEh]      11.08157121 [kcal/mol]      46.36529396 [kJ/mol]

    Induction                     -56.53808762 [mEh]     -35.47818561 [kcal/mol]    -148.44072859 [kJ/mol]
      Ind20,r                     -58.84761586 [mEh]     -36.92743646 [kcal/mol]    -154.50439416 [kJ/mol]
      Ind22                       -12.05598739 [mEh]      -7.56524630 [kcal/mol]     -31.65299052 [kJ/mol]
      Exch-Ind20,r                 24.57419942 [mEh]      15.42054294 [kcal/mol]      64.51955168 [kJ/mol]
      Exch-Ind22                    5.03446459 [mEh]       3.15917423 [kcal/mol]      13.21798496 [kJ/mol]
      delta HF,r (2)              -15.24314838 [mEh]      -9.56522002 [kcal/mol]     -40.02088055 [kJ/mol]

    Dispersion                    -20.72929660 [mEh]     -13.00783000 [kcal/mol]     -54.42476073 [kJ/mol]
      Disp20                      -21.43139091 [mEh]     -13.44840084 [kcal/mol]     -56.26810909 [kJ/mol]
      Disp21                        0.89110153 [mEh]       0.55917465 [kcal/mol]       2.33958674 [kJ/mol]
      Disp22 (SDQ)                 -2.19687686 [mEh]      -1.37856104 [kcal/mol]      -5.76789939 [kJ/mol]
      Disp22 (T)                   -3.76344130 [mEh]      -2.36159507 [kcal/mol]      -9.88091376 [kJ/mol]
      Est. Disp22 (T)              -4.36711011 [mEh]      -2.74040297 [kcal/mol]     -11.46584602 [kJ/mol]
      Exch-Disp20                   6.37497975 [mEh]       4.00036019 [kcal/mol]      16.73750704 [kJ/mol]

  Total HF                        -78.26894288 [mEh]     -49.11450316 [kcal/mol]    -205.49508123 [kJ/mol]
  Total SAPT0                     -93.32535404 [mEh]     -58.56254381 [kcal/mol]    -245.02568329 [kJ/mol]
  Total SAPT2                     -81.89124908 [mEh]     -51.38753462 [kcal/mol]    -215.00544485 [kJ/mol]
  Total SAPT2+                    -87.56413452 [mEh]     -54.94732398 [kcal/mol]    -229.89960352 [kJ/mol]

  Special recipe for scaled SAPT0 (see Manual):
    Electrostatics sSAPT0        -108.02225889 [mEh]     -67.78499083 [kcal/mol]    -283.61240164 [kJ/mol]
    Exchange sSAPT0                79.26988083 [mEh]      49.74260120 [kcal/mol]     208.12304344 [kJ/mol]
    Induction sSAPT0              -48.60247231 [mEh]     -30.49851182 [kcal/mol]    -127.60577346 [kJ/mol]
    Dispersion sSAPT0             -14.81927948 [mEh]      -9.29923827 [kcal/mol]     -38.90801291 [kJ/mol]
  Total sSAPT0                    -92.17412985 [mEh]     -57.84013972 [kcal/mol]    -242.00314458 [kJ/mol]
  --------------------------------------------------------------------------------------------------------

*** Psi4 exiting successfully. Buy a developer a beer!
