                               Psi4 1.9 release

  ==> Input File <==

--------------------------------------------------------------------------
MEMORY 60 GB

molecule dimer {
-1 1
F      2.611662     0.000000     0.000000
--
0 1
O      0.000000    -0.007351     1.810088
H     -0.603559     0.630161     1.426970
H      0.742517    -0.027506     1.118978
O      0.000000     0.007351    -1.810088
H     -0.603559    -0.630161    -1.426970
H      0.742517     0.027506    -1.118978

units ang
no_reorient
no_com
symmetry c1
}

set {
basis        aug-cc-pVTZ
scf_type     df
}

energy("sapt2+")
--------------------------------------------------------------------------

  //              Dimer HF             //
    Molecular point group: c1
  Charge       = -1
  Multiplicity = 1
  Basis Set: AUG-CC-PVTZ
    Blend: AUG-CC-PVTZ
  Basis Set: (AUG-CC-PVTZ AUX)
    Blend: AUG-CC-PVTZ-JKFIT
  @DF-RHF Final Energy:  -251.61172196591480
    Total Energy =                       -251.6117219659147963
 Dipole X            :        -49.0533005           44.9431183           -4.1101821
 Dipole Y            :          0.0000000            0.0000000            0.0000000
 Dipole Z            :         -0.0000000            0.0000000           -0.0000000
 Magnitude           :                                                    4.1101821
  //            Monomer A HF           //
    Molecular point group: c1
  Multiplicity = 1
  Basis Set: AUG-CC-PVTZ
    Blend: AUG-CC-PVTZ
  Basis Set: (AUG-CC-PVTZ AUX)
    Blend: AUG-CC-PVTZ-JKFIT
  @DF-RHF Final Energy:   -99.45090375333683
    Total Energy =                        -99.4509037533368314
  //            Monomer B HF           //
    Molecular point group: c1

    Geometry (in Angstrom), charge = 0, multiplicity = 1:

       Center              X                  Y                   Z               Mass
    ------------   -----------------  -----------------  -----------------  -----------------
      Gh(F)           2.611662000000     0.000000000000     0.000000000000    18.998403162730
         O            0.000000000000    -0.007351000000     1.810088000000    15.994914619570
         H           -0.603559000000     0.630161000000     1.426970000000     1.007825032230
         H            0.742517000000    -0.027506000000     1.118978000000     1.007825032230
         O            0.000000000000     0.007351000000    -1.810088000000    15.994914619570
         H           -0.603559000000    -0.630161000000    -1.426970000000     1.007825032230
         H            0.742517000000     0.027506000000    -1.118978000000     1.007825032230

  Charge       = 0
  Multiplicity = 1
  Basis Set: AUG-CC-PVTZ
    Blend: AUG-CC-PVTZ
  Basis Set: (AUG-CC-PVTZ AUX)
    Blend: AUG-CC-PVTZ-JKFIT

    Orbital Energies [Eh]
    ---------------------

    Doubly Occupied:

       1A    -20.586604     2A    -20.586602     3A     -1.356309
       4A     -1.353755     5A     -0.713320     6A     -0.707759
       7A     -0.604572     8A     -0.590764     9A     -0.523668
      10A     -0.520130

  @DF-RHF Final Energy:  -152.10868198027205

   => Energetics <=

    Nuclear Repulsion Energy =             33.3256140193377277
    One-Electron Energy =                -275.7816273096486270
    Two-Electron Energy =                  90.3473313100388538
    Total Energy =                       -152.1086819802720242
 Dipole X            :         -0.4048155            0.5251851            0.1203696
 Dipole Y            :          0.0000000            0.0000000            0.0000000
 Dipole Z            :         -0.0000000            0.0000000           -0.0000000
 Magnitude           :                                                    0.1203696

    SAPT Results
  --------------------------------------------------------------------------------------------------------
    Electrostatics                -46.55874613 [mEh]     -29.21605428 [kcal/mol]    -122.23997112 [kJ/mol]
      Elst10,r                    -47.12584647 [mEh]     -29.57191512 [kcal/mol]    -123.72889285 [kJ/mol]
      Elst12,r                      0.56710034 [mEh]       0.35586084 [kcal/mol]       1.48892173 [kJ/mol]

    Exchange                       14.77599225 [mEh]       9.27207512 [kcal/mol]      38.79436231 [kJ/mol]
      Exch10                       10.39914800 [mEh]       6.52556389 [kcal/mol]      27.30295930 [kJ/mol]
      Exch10(S^2)                  10.36863321 [mEh]       6.50641557 [kcal/mol]      27.22284275 [kJ/mol]
      Exch11(S^2)                   0.23535958 [mEh]       0.14769036 [kcal/mol]       0.61793648 [kJ/mol]
      Exch12(S^2)                   4.14148468 [mEh]       2.59882087 [kcal/mol]      10.87346653 [kJ/mol]

    Induction                     -17.86099428 [mEh]     -11.20794312 [kcal/mol]     -46.89403403 [kJ/mol]
      Ind20,r                     -16.43542374 [mEh]     -10.31338410 [kcal/mol]     -43.15119909 [kJ/mol]
      Ind22                        -3.12390990 [mEh]      -1.96028305 [kcal/mol]      -8.20182430 [kJ/mol]
      Exch-Ind20,r                  3.53787143 [mEh]       2.22004784 [kcal/mol]       9.28868015 [kJ/mol]
      Exch-Ind22                    0.67244944 [mEh]       0.42196840 [kcal/mol]       1.76551577 [kJ/mol]
      delta HF,r (2)               -2.51198152 [mEh]      -1.57629220 [kcal/mol]      -6.59520657 [kJ/mol]

    Dispersion                     -6.30706351 [mEh]      -3.95774210 [kcal/mol]     -16.55919296 [kJ/mol]
      Disp20                       -5.37310796 [mEh]      -3.37167615 [kcal/mol]     -14.10709301 [kJ/mol]
      Disp21                       -0.07677590 [mEh]      -0.04817760 [kcal/mol]      -0.20157509 [kJ/mol]
      Disp22 (SDQ)                 -0.71816406 [mEh]      -0.45065475 [kcal/mol]      -1.88553947 [kJ/mol]
      Disp22 (T)                   -1.05345704 [mEh]      -0.66105427 [kcal/mol]      -2.76585108 [kJ/mol]
      Est. Disp22 (T)              -1.26354817 [mEh]      -0.79288845 [kcal/mol]      -3.31744526 [kJ/mol]
      Exch-Disp20                   1.12453257 [mEh]       0.70565484 [kcal/mol]       2.95245987 [kJ/mol]

  Total HF                        -52.13623231 [mEh]     -32.71597970 [kcal/mol]    -136.88365906 [kJ/mol]
  Total SAPT0                     -56.38480769 [mEh]     -35.38200100 [kcal/mol]    -148.03829220 [kJ/mol]
  Total SAPT2                     -53.89232355 [mEh]     -33.81794359 [kcal/mol]    -141.49427598 [kJ/mol]
  Total SAPT2+                    -55.95081167 [mEh]     -35.10966439 [kcal/mol]    -146.89883580 [kJ/mol]

  Special recipe for scaled SAPT0 (see Manual):
    Electrostatics sSAPT0         -47.12584647 [mEh]     -29.57191512 [kcal/mol]    -123.72889285 [kJ/mol]
    Exchange sSAPT0                10.39914800 [mEh]       6.52556389 [kcal/mol]      27.30295930 [kJ/mol]
    Induction sSAPT0              -15.37820606 [mEh]      -9.64996999 [kcal/mol]     -40.37547444 [kJ/mol]
    Dispersion sSAPT0              -4.23861768 [mEh]      -2.65977275 [kcal/mol]     -11.12848917 [kJ/mol]
  Total sSAPT0                    -56.34352221 [mEh]     -35.35609397 [kcal/mol]    -147.92989717 [kJ/mol]
  --------------------------------------------------------------------------------------------------------

*** Psi4 exiting successfully. Buy a developer a beer!
