                               Psi4 1.9 release

  ==> Input File <==

--------------------------------------------------------------------------
MEMORY 60 GB

molecule dimer {
-1 1
F      1.915219     0.000000     0.000000
--
0 1
O      0.000000    -0.007351     1.810088
H     -0.603559     0.630161     1.426970
H      0.742517    -0.027506     1.118978
O      0.000000     0.007351    -1.810088
H     -0.603559    -0.630161    -1.426970
H      0.742517     0.027506    -1.118978

units ang
no_reorient
no_com
symmetry c1
}

set {
basis        aug-cc-pVTZ
scf_type     df
}

energy("sapt2+")
--------------------------------------------------------------------------

  //              Dimer HF             //
    Molecular point group: c1
  Charge       = -1
  Multiplicity = 1
  Basis Set: AUG-CC-PVTZ
    Blend: AUG-CC-PVTZ
  Basis Set: (AUG-CC-PVTZ AUX)
    Blend: AUG-CC-PVTZ-JKFIT
  @DF-RHF Final Energy:  -251.63669082837822
    Total Energy =                       -251.6366908283782209
 Dipole X            :        -35.6082625           33.0983395           -2.5099229
 Dipole Y            :         -0.0000000            0.0000000           -0.0000000
 Dipole Z            :          0.0000000            0.0000000            0.0000000
 Magnitude           :                                                    2.5099229
  //            Monomer A HF           //
    Molecular point group: c1
  Multiplicity = 1
  Basis Set: AUG-CC-PVTZ
    Blend: AUG-CC-PVTZ
  Basis Set: (AUG-CC-PVTZ AUX)
    Blend: AUG-CC-PVTZ-JKFIT
  @DF-RHF Final Energy:   -99.45096852815449
    Total Energy =                        -99.4509685281545046
  //            Monomer B HF           //
    Molecular point group: c1

    Geometry (in Angstrom), charge = 0, multiplicity = 1:

       Center              X                  Y                   Z               Mass
    ------------   -----------------  -----------------  -----------------  -----------------
      Gh(F)           1.915219000000     0.000000000000     0.000000000000    18.998403162730
         O            0.000000000000    -0.007351000000     1.810088000000    15.994914619570
         H           -0.603559000000     0.630161000000     1.426970000000     1.007825032230
         H            0.742517000000    -0.027506000000     1.118978000000     1.007825032230
         O            0.000000000000     0.007351000000    -1.810088000000    15.994914619570
         H           -0.603559000000    -0.630161000000    -1.426970000000     1.007825032230
         H            0.742517000000     0.027506000000    -1.118978000000     1.007825032230

  Charge       = 0
  Multiplicity = 1
  Basis Set: AUG-CC-PVTZ
    Blend: AUG-CC-PVTZ
  Basis Set: (AUG-CC-PVTZ AUX)
    Blend: AUG-CC-PVTZ-JKFIT

    Orbital Energies [Eh]
    ---------------------

    Doubly Occupied:

       1A    -20.586583     2A    -20.586582     3A     -1.356296
       4A     -1.353743     5A     -0.713313     6A     -0.707752
       7A     -0.604564     8A     -0.590755     9A     -0.523662
      10A     -0.520121

  @DF-RHF Final Energy:  -152.10871693171225

   => Energetics <=

    Nuclear Repulsion Energy =             33.3256140193377277
    One-Electron Energy =                -275.7819189357854839
    Two-Electron Energy =                  90.3475879847354975
    Total Energy =                       -152.1087169317122516
 Dipole X            :         -0.4046698            0.5251851            0.1205153
 Dipole Y            :         -0.0000000            0.0000000           -0.0000000
 Dipole Z            :         -0.0000000            0.0000000           -0.0000000
 Magnitude           :                                                    0.1205153

    SAPT Results
  --------------------------------------------------------------------------------------------------------
    Electrostatics                -98.03956956 [mEh]     -61.52075871 [kcal/mol]    -257.40285442 [kJ/mol]
      Elst10,r                    -97.91066186 [mEh]     -61.43986790 [kcal/mol]    -257.06440729 [kJ/mol]
      Elst12,r                     -0.12890771 [mEh]      -0.08089081 [kcal/mol]      -0.33844713 [kJ/mol]

    Exchange                       80.66253748 [mEh]      50.61650645 [kcal/mol]     211.77946299 [kJ/mol]
      Exch10                       64.37851370 [mEh]      40.39812725 [kcal/mol]     169.02576443 [kJ/mol]
      Exch10(S^2)                  63.71277717 [mEh]      39.98037128 [kcal/mol]     167.27787342 [kJ/mol]
      Exch11(S^2)                   0.94948196 [mEh]       0.59580893 [kcal/mol]       2.49286455 [kJ/mol]
      Exch12(S^2)                  15.33454182 [mEh]       9.62257027 [kcal/mol]      40.26083401 [kJ/mol]

    Induction                     -49.71773814 [mEh]     -31.19835170 [kcal/mol]    -130.53390351 [kJ/mol]
      Ind20,r                     -50.28729953 [mEh]     -31.55575686 [kcal/mol]    -132.02928671 [kJ/mol]
      Ind22                       -10.26091780 [mEh]      -6.43882313 [kcal/mol]     -26.94003596 [kJ/mol]
      Exch-Ind20,r                 19.68380551 [mEh]      12.35177444 [kcal/mol]      51.67982425 [kJ/mol]
      Exch-Ind22                    4.01640001 [mEh]       2.52032906 [kcal/mol]      10.54505677 [kJ/mol]
      delta HF,r (2)              -12.86972634 [mEh]      -8.07587520 [kcal/mol]     -33.78946184 [kJ/mol]

    Dispersion                    -18.31332388 [mEh]     -11.49178423 [kcal/mol]     -48.08162523 [kJ/mol]
      Disp20                      -18.49909013 [mEh]     -11.60835431 [kcal/mol]     -48.56935443 [kJ/mol]
      Disp21                        0.62084225 [mEh]       0.38958439 [kcal/mol]       1.63002109 [kJ/mol]
      Disp22 (SDQ)                 -1.93464056 [mEh]      -1.21400528 [kcal/mol]      -5.07939809 [kJ/mol]
      Disp22 (T)                   -3.30460196 [mEh]      -2.07366904 [kcal/mol]      -8.67623125 [kJ/mol]
      Est. Disp22 (T)              -3.83401189 [mEh]      -2.40587878 [kcal/mol]     -10.06619683 [kJ/mol]
      Exch-Disp20                   5.33357645 [mEh]       3.34686975 [kcal/mol]      14.00330303 [kJ/mol]

  Total HF                        -77.00536851 [mEh]     -48.32159827 [kcal/mol]    -202.17756717 [kJ/mol]
  Total SAPT0                     -90.17088219 [mEh]     -56.58308283 [kcal/mol]    -236.74361858 [kJ/mol]
  Total SAPT2                     -80.26028390 [mEh]     -50.36408852 [kcal/mol]    -210.72334635 [kJ/mol]
  Total SAPT2+                    -85.40809410 [mEh]     -53.59438819 [kcal/mol]    -224.23892018 [kJ/mol]

  Special recipe for scaled SAPT0 (see Manual):
    Electrostatics sSAPT0         -97.91066186 [mEh]     -61.43986790 [kcal/mol]    -257.06440729 [kJ/mol]
    Exchange sSAPT0                64.37851370 [mEh]      40.39812725 [kcal/mol]     169.02576443 [kJ/mol]
    Induction sSAPT0              -42.84972069 [mEh]     -26.88860568 [kcal/mol]    -112.50192618 [kJ/mol]
    Dispersion sSAPT0             -12.99656855 [mEh]      -8.15546989 [kcal/mol]     -34.12248602 [kJ/mol]
  Total sSAPT0                    -89.37843740 [mEh]     -56.08581622 [kcal/mol]    -234.66305506 [kJ/mol]
  --------------------------------------------------------------------------------------------------------

*** Psi4 exiting successfully. Buy a developer a beer!
