                               Psi4 1.9 release

  ==> Input File <==

--------------------------------------------------------------------------
MEMORY 60 GB

molecule dimer {
-1 1
F      1.566997     0.000000     0.000000
--
0 1
O      0.000000    -0.007351     1.810088
H     -0.603559     0.630161     1.426970
H      0.742517    -0.027506     1.118978
O      0.000000     0.007351    -1.810088
H     -0.603559    -0.630161    -1.426970
H      0.742517     0.027506    -1.118978

units ang
no_reorient
no_com
symmetry c1
}

set {
basis        aug-cc-pVTZ
scf_type     df
}

energy("sapt2+")
--------------------------------------------------------------------------

  //              Dimer HF             //
    Molecular point group: c1
  Charge       = -1
  Multiplicity = 1
  Basis Set: AUG-CC-PVTZ
    Blend: AUG-CC-PVTZ
  Basis Set: (AUG-CC-PVTZ AUX)
    Blend: AUG-CC-PVTZ-JKFIT
  @DF-RHF Final Energy:  -251.63418473710982
    Total Energy =                       -251.6341847371098197
 Dipole X            :        -28.9174464           27.1759417           -1.7415047
 Dipole Y            :          0.0000000            0.0000000            0.0000000
 Dipole Z            :         -0.0000000            0.0000000           -0.0000000
 Magnitude           :                                                    1.7415047
  //            Monomer A HF           //
    Molecular point group: c1
  Multiplicity = 1
  Basis Set: AUG-CC-PVTZ
    Blend: AUG-CC-PVTZ
  Basis Set: (AUG-CC-PVTZ AUX)
    Blend: AUG-CC-PVTZ-JKFIT
  @DF-RHF Final Energy:   -99.45101863843574
    Total Energy =                        -99.4510186384357269
  //            Monomer B HF           //
    Molecular point group: c1

    Geometry (in Angstrom), charge = 0, multiplicity = 1:

       Center              X                  Y                   Z               Mass
    ------------   -----------------  -----------------  -----------------  -----------------
      Gh(F)           1.566997000000     0.000000000000     0.000000000000    18.998403162730
         O            0.000000000000    -0.007351000000     1.810088000000    15.994914619570
         H           -0.603559000000     0.630161000000     1.426970000000     1.007825032230
         H            0.742517000000    -0.027506000000     1.118978000000     1.007825032230
         O            0.000000000000     0.007351000000    -1.810088000000    15.994914619570
         H           -0.603559000000    -0.630161000000    -1.426970000000     1.007825032230
         H            0.742517000000     0.027506000000    -1.118978000000     1.007825032230

  Charge       = 0
  Multiplicity = 1
  Basis Set: AUG-CC-PVTZ
    Blend: AUG-CC-PVTZ
  Basis Set: (AUG-CC-PVTZ AUX)
    Blend: AUG-CC-PVTZ-JKFIT

    Orbital Energies [Eh]
    ---------------------

    Doubly Occupied:

       1A    -20.586566     2A    -20.586564     3A     -1.356286
       4A     -1.353733     5A     -0.713307     6A     -0.707747
       7A     -0.604559     8A     -0.590751     9A     -0.523656
      10A     -0.520114

  @DF-RHF Final Energy:  -152.10874427188864

   => Energetics <=

    Nuclear Repulsion Energy =             33.3256140193377277
    One-Electron Energy =                -275.7821501508871052
    Two-Electron Energy =                  90.3477918596607310
    Total Energy =                       -152.1087442718886393
 Dipole X            :         -0.4046519            0.5251851            0.1205333
 Dipole Y            :          0.0000000            0.0000000            0.0000000
 Dipole Z            :         -0.0000000            0.0000000           -0.0000000
 Magnitude           :                                                    0.1205333

    SAPT Results
  --------------------------------------------------------------------------------------------------------
    Electrostatics               -145.39713490 [mEh]     -91.23807961 [kcal/mol]    -381.74012509 [kJ/mol]
      Elst10,r                   -144.43127393 [mEh]     -90.63199270 [kcal/mol]    -379.20425747 [kJ/mol]
      Elst12,r                     -0.96586097 [mEh]      -0.60608691 [kcal/mol]      -2.53586763 [kJ/mol]

    Exchange                      168.90511889 [mEh]     105.98956227 [kcal/mol]     443.46032855 [kJ/mol]
      Exch10                      141.65001933 [mEh]      88.88672909 [kcal/mol]     371.90207450 [kJ/mol]
      Exch10(S^2)                 138.91723536 [mEh]      87.17188126 [kcal/mol]     364.72715118 [kJ/mol]
      Exch11(S^2)                   1.41929349 [mEh]       0.89062011 [kcal/mol]       3.72635454 [kJ/mol]
      Exch12(S^2)                  25.83580608 [mEh]      16.21221308 [kcal/mol]      67.83189951 [kJ/mol]

    Induction                     -81.59229061 [mEh]     -51.19993535 [kcal/mol]    -214.22052949 [kJ/mol]
      Ind20,r                     -95.94115587 [mEh]     -60.20398423 [kcal/mol]    -251.89347004 [kJ/mol]
      Ind22                       -19.65983540 [mEh]     -12.33673297 [kcal/mol]     -51.61689074 [kJ/mol]
      Exch-Ind20,r                 47.37618319 [mEh]      29.72900378 [kcal/mol]     124.38615182 [kJ/mol]
      Exch-Ind22                    9.70811697 [mEh]       6.09193537 [kcal/mol]      25.48865759 [kJ/mol]
      delta HF,r (2)              -23.07559949 [mEh]     -14.48015730 [kcal/mol]     -60.58497813 [kJ/mol]

    Dispersion                    -29.34162232 [mEh]     -18.41214598 [kcal/mol]     -77.03641879 [kJ/mol]
      Disp20                      -32.53750834 [mEh]     -20.41759474 [kcal/mol]     -85.42721637 [kJ/mol]
      Disp21                        2.18235475 [mEh]       1.36944828 [kcal/mol]       5.72977161 [kJ/mol]
      Disp22 (SDQ)                 -3.21025138 [mEh]      -2.01446315 [kcal/mol]      -8.42851383 [kJ/mol]
      Disp22 (T)                   -5.56293883 [mEh]      -3.49079682 [kcal/mol]     -14.60549388 [kJ/mol]
      Est. Disp22 (T)              -6.31226415 [mEh]      -3.96100556 [kcal/mol]     -16.57284725 [kJ/mol]
      Exch-Disp20                  10.53604680 [mEh]       6.61146918 [kcal/mol]      27.66238706 [kJ/mol]

  Total HF                        -74.42182679 [mEh]     -46.70040136 [kcal/mol]    -195.39447931 [kJ/mol]
  Total SAPT0                     -96.42328832 [mEh]     -60.50652692 [kcal/mol]    -253.15930862 [kJ/mol]
  Total SAPT2                     -80.08576816 [mEh]     -50.25457824 [kcal/mol]    -210.26515534 [kJ/mol]
  Total SAPT2+                    -87.42592894 [mEh]     -54.86059867 [kcal/mol]    -229.53674482 [kJ/mol]

  Special recipe for scaled SAPT0 (see Manual):
    Electrostatics sSAPT0        -144.43127393 [mEh]     -90.63199270 [kcal/mol]    -379.20425747 [kJ/mol]
    Exchange sSAPT0               141.65001933 [mEh]      88.88672909 [kcal/mol]     371.90207450 [kJ/mol]
    Induction sSAPT0              -68.78925232 [mEh]     -43.16590753 [kcal/mol]    -180.60615709 [kJ/mol]
    Dispersion sSAPT0             -21.36735306 [mEh]     -13.40821647 [kcal/mol]     -56.09997773 [kJ/mol]
  Total sSAPT0                    -92.93785999 [mEh]     -58.31938761 [kcal/mol]    -244.00831778 [kJ/mol]
  --------------------------------------------------------------------------------------------------------

*** Psi4 exiting successfully. Buy a developer a beer!
