                               Psi4 1.9 release

  ==> Input File <==

--------------------------------------------------------------------------
MEMORY 60 GB

molecule dimer {
-1 1
F      1.741108     0.000000     0.000000
--
0 1
O      0.000000    -0.007351     1.810088
H     -0.603559     0.630161     1.426970
H      0.742517    -0.027506     1.118978
O      0.000000     0.007351    -1.810088
H     -0.603559    -0.630161    -1.426970
H      0.742517     0.027506    -1.118978

units ang
no_reorient
no_com
symmetry c1
}

set {
basis        aug-cc-pVTZ
scf_type     df
}

energy("sapt2+")
--------------------------------------------------------------------------

  //              Dimer HF             //
    Molecular point group: c1
  Charge       = -1
  Multiplicity = 1
  Basis Set: AUG-CC-PVTZ
    Blend: AUG-CC-PVTZ
  Basis Set: (AUG-CC-PVTZ AUX)
    Blend: AUG-CC-PVTZ-JKFIT
  @DF-RHF Final Energy:  -251.63818545215423
    Total Energy =                       -251.6381854521542323
 Dipole X            :        -32.2543917           30.1371406           -2.1172511
 Dipole Y            :         -0.0000000            0.0000000           -0.0000000
 Dipole Z            :          0.0000000            0.0000000            0.0000000
 Magnitude           :                                                    2.1172511
  //            Monomer A HF           //
    Molecular point group: c1
  Multiplicity = 1
  Basis Set: AUG-CC-PVTZ
    Blend: AUG-CC-PVTZ
  Basis Set: (AUG-CC-PVTZ AUX)
    Blend: AUG-CC-PVTZ-JKFIT
  @DF-RHF Final Energy:   -99.45099444691716
    Total Energy =                        -99.4509944469171643
  //            Monomer B HF           //
    Molecular point group: c1

    Geometry (in Angstrom), charge = 0, multiplicity = 1:

       Center              X                  Y                   Z               Mass
    ------------   -----------------  -----------------  -----------------  -----------------
      Gh(F)           1.741108000000     0.000000000000     0.000000000000    18.998403162730
         O            0.000000000000    -0.007351000000     1.810088000000    15.994914619570
         H           -0.603559000000     0.630161000000     1.426970000000     1.007825032230
         H            0.742517000000    -0.027506000000     1.118978000000     1.007825032230
         O            0.000000000000     0.007351000000    -1.810088000000    15.994914619570
         H           -0.603559000000    -0.630161000000    -1.426970000000     1.007825032230
         H            0.742517000000     0.027506000000    -1.118978000000     1.007825032230

  Charge       = 0
  Multiplicity = 1
  Basis Set: AUG-CC-PVTZ
    Blend: AUG-CC-PVTZ
  Basis Set: (AUG-CC-PVTZ AUX)
    Blend: AUG-CC-PVTZ-JKFIT

    Orbital Energies [Eh]
    ---------------------

    Doubly Occupied:

       1A    -20.586575     2A    -20.586573     3A     -1.356291
       4A     -1.353738     5A     -0.713310     6A     -0.707750
       7A     -0.604561     8A     -0.590753     9A     -0.523659
      10A     -0.520117

  @DF-RHF Final Energy:  -152.10873291783523

   => Energetics <=

    Nuclear Repulsion Energy =             33.3256140193377277
    One-Electron Energy =                -275.7820396793699729
    Two-Electron Energy =                  90.3476927421970117
    Total Energy =                       -152.1087329178352263
 Dipole X            :         -0.4046493            0.5251851            0.1205358
 Dipole Y            :         -0.0000000            0.0000000           -0.0000000
 Dipole Z            :          0.0000000            0.0000000            0.0000000
 Magnitude           :                                                    0.1205358

    SAPT Results
  --------------------------------------------------------------------------------------------------------
    Electrostatics               -119.62832769 [mEh]     -75.06790896 [kcal/mol]    -314.08413109 [kJ/mol]
      Elst10,r                   -119.15493903 [mEh]     -74.77085309 [kcal/mol]    -312.84124933 [kJ/mol]
      Elst12,r                     -0.47338866 [mEh]      -0.29705587 [kcal/mol]      -1.24288176 [kJ/mol]

    Exchange                      118.36423306 [mEh]      74.27467760 [kcal/mol]     310.76525107 [kJ/mol]
      Exch10                       96.95016059 [mEh]      60.83714425 [kcal/mol]     254.54261156 [kJ/mol]
      Exch10(S^2)                  95.57797356 [mEh]      59.97608389 [kcal/mol]     250.93993501 [kJ/mol]
      Exch11(S^2)                   1.21493653 [mEh]       0.76238418 [kcal/mol]       3.18981542 [kJ/mol]
      Exch12(S^2)                  20.19913593 [mEh]      12.67514916 [kcal/mol]      53.03282409 [kJ/mol]

    Induction                     -64.14635037 [mEh]     -40.25244256 [kcal/mol]    -168.41621969 [kJ/mol]
      Ind20,r                     -69.11271668 [mEh]     -43.36888447 [kcal/mol]    -181.45541264 [kJ/mol]
      Ind22                       -14.18980350 [mEh]      -8.90423612 [kcal/mol]     -37.25532394 [kJ/mol]
      Exch-Ind20,r                 30.66894720 [mEh]      19.24505492 [kcal/mol]      80.52130979 [kJ/mol]
      Exch-Ind22                    6.29676209 [mEh]       3.95127786 [kcal/mol]      16.53214659 [kJ/mol]
      delta HF,r (2)              -17.80953948 [mEh]     -11.17565475 [kcal/mol]     -46.75893948 [kJ/mol]

    Dispersion                    -23.37949591 [mEh]     -14.67085517 [kcal/mol]     -61.38285804 [kJ/mol]
      Disp20                      -24.74174219 [mEh]     -15.52567762 [kcal/mol]     -64.95943518 [kJ/mol]
      Disp21                        1.23447445 [mEh]       0.77464441 [kcal/mol]       3.24111222 [kJ/mol]
      Disp22 (SDQ)                 -2.49539081 [mEh]      -1.56588138 [kcal/mol]      -6.55164768 [kJ/mol]
      Disp22 (T)                   -4.32009205 [mEh]      -2.71089869 [kcal/mol]     -11.34240013 [kJ/mol]
      Est. Disp22 (T)              -4.95799504 [mEh]      -3.11118886 [kcal/mol]     -13.01721418 [kJ/mol]
      Exch-Disp20                   7.58115769 [mEh]       4.75724827 [kcal/mol]      19.90432678 [kJ/mol]

  Total HF                        -78.45808740 [mEh]     -49.23319314 [kcal/mol]    -205.99168009 [kJ/mol]
  Total SAPT0                     -95.61867190 [mEh]     -60.00162249 [kcal/mol]    -251.04678850 [kJ/mol]
  Total SAPT2                     -82.57102951 [mEh]     -51.81410328 [kcal/mol]    -216.79020811 [kJ/mol]
  Total SAPT2+                    -88.78994091 [mEh]     -55.71652910 [kcal/mol]    -233.11795775 [kJ/mol]

  Special recipe for scaled SAPT0 (see Manual):
    Electrostatics sSAPT0        -119.15493903 [mEh]     -74.77085309 [kcal/mol]    -312.84124933 [kJ/mol]
    Exchange sSAPT0                96.95016059 [mEh]      60.83714425 [kcal/mol]     254.54261156 [kJ/mol]
    Induction sSAPT0              -54.91333690 [mEh]     -34.45863914 [kcal/mol]    -144.17494616 [kJ/mol]
    Dispersion sSAPT0             -16.82935241 [mEh]     -10.56057808 [kcal/mol]     -44.18545867 [kJ/mol]
  Total sSAPT0                    -93.94746775 [mEh]     -58.95292605 [kcal/mol]    -246.65904259 [kJ/mol]
  --------------------------------------------------------------------------------------------------------

*** Psi4 exiting successfully. Buy a developer a beer!
