                               Psi4 1.9 release

  ==> Input File <==

--------------------------------------------------------------------------
MEMORY 60 GB

molecule dimer {
-1 1
F      3.482216     0.000000     0.000000
--
0 1
O      0.000000    -0.007351     1.810088
H     -0.603559     0.630161     1.426970
H      0.742517    -0.027506     1.118978
O      0.000000     0.007351    -1.810088
H     -0.603559    -0.630161    -1.426970
H      0.742517     0.027506    -1.118978

units ang
no_reorient
no_com
symmetry c1
}

set {
basis        aug-cc-pVTZ
scf_type     df
}

energy("sapt2+")
--------------------------------------------------------------------------

  //              Dimer HF             //
    Molecular point group: c1
  Charge       = -1
  Multiplicity = 1
  Basis Set: AUG-CC-PVTZ
    Blend: AUG-CC-PVTZ
  Basis Set: (AUG-CC-PVTZ AUX)
    Blend: AUG-CC-PVTZ-JKFIT
  @DF-RHF Final Energy:  -251.58638521336925
    Total Energy =                       -251.5863852133692546
 Dipole X            :        -65.7716469           59.7490961           -6.0225509
 Dipole Y            :         -0.0000000            0.0000000           -0.0000000
 Dipole Z            :          0.0000000            0.0000000            0.0000000
 Magnitude           :                                                    6.0225509
  //            Monomer A HF           //
    Molecular point group: c1
  Multiplicity = 1
  Basis Set: AUG-CC-PVTZ
    Blend: AUG-CC-PVTZ
  Basis Set: (AUG-CC-PVTZ AUX)
    Blend: AUG-CC-PVTZ-JKFIT
  @DF-RHF Final Energy:   -99.45083591405927
    Total Energy =                        -99.4508359140592688
  //            Monomer B HF           //
    Molecular point group: c1

    Geometry (in Angstrom), charge = 0, multiplicity = 1:

       Center              X                  Y                   Z               Mass
    ------------   -----------------  -----------------  -----------------  -----------------
      Gh(F)           3.482216000000     0.000000000000     0.000000000000    18.998403162730
         O            0.000000000000    -0.007351000000     1.810088000000    15.994914619570
         H           -0.603559000000     0.630161000000     1.426970000000     1.007825032230
         H            0.742517000000    -0.027506000000     1.118978000000     1.007825032230
         O            0.000000000000     0.007351000000    -1.810088000000    15.994914619570
         H           -0.603559000000    -0.630161000000    -1.426970000000     1.007825032230
         H            0.742517000000     0.027506000000    -1.118978000000     1.007825032230

  Charge       = 0
  Multiplicity = 1
  Basis Set: AUG-CC-PVTZ
    Blend: AUG-CC-PVTZ
  Basis Set: (AUG-CC-PVTZ AUX)
    Blend: AUG-CC-PVTZ-JKFIT

    Orbital Energies [Eh]
    ---------------------

    Doubly Occupied:

       1A    -20.586598     2A    -20.586596     3A     -1.356317
       4A     -1.353763     5A     -0.713328     6A     -0.707767
       7A     -0.604579     8A     -0.590771     9A     -0.523672
      10A     -0.520134

  @DF-RHF Final Energy:  -152.10866727028781

   => Energetics <=

    Nuclear Repulsion Energy =             33.3256140193377277
    One-Electron Energy =                -275.7815129198414184
    Two-Electron Energy =                  90.3472316302158731
    Total Energy =                       -152.1086672702878104
 Dipole X            :         -0.4048472            0.5251851            0.1203380
 Dipole Y            :         -0.0000000            0.0000000           -0.0000000
 Dipole Z            :          0.0000000            0.0000000            0.0000000
 Magnitude           :                                                    0.1203380

    SAPT Results
  --------------------------------------------------------------------------------------------------------
    Electrostatics                -22.21195192 [mEh]     -13.93821026 [kcal/mol]     -58.31747172 [kJ/mol]
      Elst10,r                    -22.83738765 [mEh]     -14.33067710 [kcal/mol]     -59.95955300 [kJ/mol]
      Elst12,r                      0.62543573 [mEh]       0.39246684 [kcal/mol]       1.64208128 [kJ/mol]

    Exchange                        1.60422655 [mEh]       1.00666736 [kcal/mol]       4.21189623 [kJ/mol]
      Exch10                        0.94057087 [mEh]       0.59021713 [kcal/mol]       2.46946847 [kJ/mol]
      Exch10(S^2)                   0.94004825 [mEh]       0.58988918 [kcal/mol]       2.46809633 [kJ/mol]
      Exch11(S^2)                   0.02877285 [mEh]       0.01805524 [kcal/mol]       0.07554312 [kJ/mol]
      Exch12(S^2)                   0.63488283 [mEh]       0.39839499 [kcal/mol]       1.66688464 [kJ/mol]

    Induction                      -5.74180963 [mEh]      -3.60303994 [kcal/mol]     -15.07511911 [kJ/mol]
      Ind20,r                      -5.17981111 [mEh]      -3.25038055 [kcal/mol]     -13.59959221 [kJ/mol]
      Ind22                        -0.82710888 [mEh]      -0.51901866 [kcal/mol]      -2.17157406 [kJ/mol]
      Exch-Ind20,r                  0.44158175 [mEh]       0.27709673 [kcal/mol]       1.15937274 [kJ/mol]
      Exch-Ind22                    0.07051149 [mEh]       0.04424663 [kcal/mol]       0.18512789 [kJ/mol]
      delta HF,r (2)               -0.24698288 [mEh]      -0.15498410 [kcal/mol]      -0.64845347 [kJ/mol]

    Dispersion                     -1.56178717 [mEh]      -0.98003625 [kcal/mol]      -4.10047166 [kJ/mol]
      Disp20                       -1.15486439 [mEh]      -0.72468834 [kcal/mol]      -3.03209604 [kJ/mol]
      Disp21                       -0.03470032 [mEh]      -0.02177478 [kcal/mol]      -0.09110568 [kJ/mol]
      Disp22 (SDQ)                 -0.20365547 [mEh]      -0.12779574 [kcal/mol]      -0.53469737 [kJ/mol]
      Disp22 (T)                   -0.25940649 [mEh]      -0.16278003 [kcal/mol]      -0.68107166 [kJ/mol]
      Est. Disp22 (T)              -0.30135444 [mEh]      -0.18910276 [kcal/mol]      -0.79120596 [kJ/mol]
      Exch-Disp20                   0.13278745 [mEh]       0.08332538 [kcal/mol]       0.34863339 [kJ/mol]

  Total HF                        -26.88202902 [mEh]     -16.86872789 [kcal/mol]     -70.57875747 [kJ/mol]
  Total SAPT0                     -27.90410596 [mEh]     -17.51009085 [kcal/mol]     -73.26222012 [kJ/mol]
  Total SAPT2                     -27.37161194 [mEh]     -17.17594581 [kcal/mol]     -71.86415725 [kJ/mol]
  Total SAPT2+                    -27.91132217 [mEh]     -17.51461909 [kcal/mol]     -73.28116627 [kJ/mol]

  Special recipe for scaled SAPT0 (see Manual):
    Electrostatics sSAPT0         -22.83738765 [mEh]     -14.33067710 [kcal/mol]     -59.95955300 [kJ/mol]
    Exchange sSAPT0                 0.94057087 [mEh]       0.59021713 [kcal/mol]       2.46946847 [kJ/mol]
    Induction sSAPT0               -4.98447534 [mEh]      -3.12780550 [kcal/mol]     -13.08673821 [kJ/mol]
    Dispersion sSAPT0              -1.02185535 [mEh]      -0.64122391 [kcal/mol]      -2.68288085 [kJ/mol]
  Total sSAPT0                    -27.90314747 [mEh]     -17.50948939 [kcal/mol]     -73.25970359 [kJ/mol]
  --------------------------------------------------------------------------------------------------------

*** Psi4 exiting successfully. Buy a developer a beer!
