                               Psi4 1.9 release

  ==> Input File <==

--------------------------------------------------------------------------
MEMORY 60 GB

molecule dimer {
-1 1
Cl     2.945336     0.000000     0.000000
--
0 1
O      0.000000    -0.107289     1.572847
H     -0.369135     0.578119     1.010976
H      0.913486    -0.160341     1.215831
O      0.000000     0.107289    -1.572847
H     -0.369135    -0.578119    -1.010976
H      0.913486     0.160341    -1.215831

units ang
no_reorient
no_com
symmetry c1
}

set {
basis        aug-cc-pVTZ
scf_type     df
}

energy("sapt2+")
--------------------------------------------------------------------------

  //              Dimer HF             //
    Molecular point group: c1
  Charge       = -1
  Multiplicity = 1
  Basis Set: AUG-CC-PVTZ
    Blend: AUG-CC-PVTZ
  Basis Set: (AUG-CC-PVTZ AUX)
    Blend: AUG-CC-PVTZ-JKFIT
  @DF-RHF Final Energy:  -611.72895056076095
    Total Energy =                       -611.7289505607609499
 Dipole X            :       -100.7755968           96.6772812           -4.0983156
 Dipole Y            :         -0.0000000            0.0000000           -0.0000000
 Dipole Z            :          0.0000000            0.0000000            0.0000000
 Magnitude           :                                                    4.0983156
  //            Monomer A HF           //
    Molecular point group: c1
  Multiplicity = 1
  Basis Set: AUG-CC-PVTZ
    Blend: AUG-CC-PVTZ
  Basis Set: (AUG-CC-PVTZ AUX)
    Blend: AUG-CC-PVTZ-JKFIT
  @DF-RHF Final Energy:  -459.57352279240394
    Total Energy =                       -459.5735227924038782
  //            Monomer B HF           //
    Molecular point group: c1

    Geometry (in Angstrom), charge = 0, multiplicity = 1:

       Center              X                  Y                   Z               Mass
    ------------   -----------------  -----------------  -----------------  -----------------
      Gh(CL)          2.945336000000     0.000000000000     0.000000000000    34.968852682000
         O            0.000000000000    -0.107289000000     1.572847000000    15.994914619570
         H           -0.369135000000     0.578119000000     1.010976000000     1.007825032230
         H            0.913486000000    -0.160341000000     1.215831000000     1.007825032230
         O            0.000000000000     0.107289000000    -1.572847000000    15.994914619570
         H           -0.369135000000    -0.578119000000    -1.010976000000     1.007825032230
         H            0.913486000000     0.160341000000    -1.215831000000     1.007825032230

  Charge       = 0
  Multiplicity = 1
  Basis Set: AUG-CC-PVTZ
    Blend: AUG-CC-PVTZ
  Basis Set: (AUG-CC-PVTZ AUX)
    Blend: AUG-CC-PVTZ-JKFIT

    Orbital Energies [Eh]
    ---------------------

    Doubly Occupied:

       1A    -20.582450     2A    -20.582446     3A     -1.365366
       4A     -1.358245     5A     -0.717582     6A     -0.711472
       7A     -0.611624     8A     -0.594362     9A     -0.527559
      10A     -0.516196

  @DF-RHF Final Energy:  -152.11629772582560

   => Energetics <=

    Nuclear Repulsion Energy =             35.8040005219439550
    One-Electron Energy =                -280.7059927611192620
    Two-Electron Energy =                  92.7856945133497106
    Total Energy =                       -152.1162977258256035
 Dipole X            :         -1.3929757            2.0573486            0.6643729
 Dipole Y            :         -0.0000000            0.0000000           -0.0000000
 Dipole Z            :          0.0000000            0.0000000            0.0000000
 Magnitude           :                                                    0.6643729

    SAPT Results
  --------------------------------------------------------------------------------------------------------
    Electrostatics                -46.87207797 [mEh]     -29.41267298 [kcal/mol]    -123.06262377 [kJ/mol]
      Elst10,r                    -47.41268937 [mEh]     -29.75191176 [kcal/mol]    -124.48199879 [kJ/mol]
      Elst12,r                      0.54061140 [mEh]       0.33923877 [kcal/mol]       1.41937502 [kJ/mol]

    Exchange                       26.42599821 [mEh]      16.58256423 [kcal/mol]      69.38144875 [kJ/mol]
      Exch10                       23.23987086 [mEh]      14.58323913 [kcal/mol]      61.01627254 [kJ/mol]
      Exch10(S^2)                  22.99292820 [mEh]      14.42828027 [kcal/mol]      60.36792466 [kJ/mol]
      Exch11(S^2)                   1.06544992 [mEh]       0.66857992 [kcal/mol]       2.79733839 [kJ/mol]
      Exch12(S^2)                   2.12067743 [mEh]       1.33074518 [kcal/mol]       5.56783782 [kJ/mol]

    Induction                     -16.17028668 [mEh]     -10.14700809 [kcal/mol]     -42.45508183 [kJ/mol]
      Ind20,r                     -21.87012439 [mEh]     -13.72371025 [kcal/mol]     -57.42000368 [kJ/mol]
      Ind22                        -2.52657449 [mEh]      -1.58544943 [kcal/mol]      -6.63352041 [kJ/mol]
      Exch-Ind20,r                 11.36980812 [mEh]       7.13466231 [kcal/mol]      29.85142710 [kJ/mol]
      Exch-Ind22                    1.31351183 [mEh]       0.82424112 [kcal/mol]       3.44862484 [kJ/mol]
      delta HF,r (2)               -4.45690775 [mEh]      -2.79675184 [kcal/mol]     -11.70160968 [kJ/mol]

    Dispersion                     -9.82147695 [mEh]      -6.16306983 [kcal/mol]     -25.78628418 [kJ/mol]
      Disp20                      -10.84186658 [mEh]      -6.80337400 [kcal/mol]     -28.46531680 [kJ/mol]
      Disp21                        0.64171315 [mEh]       0.40268108 [kcal/mol]       1.68481764 [kJ/mol]
      Disp22 (SDQ)                 -0.03455046 [mEh]      -0.02168074 [kcal/mol]      -0.09071221 [kJ/mol]
      Disp22 (T)                   -1.76887384 [mEh]      -1.10998509 [kcal/mol]      -4.64417762 [kJ/mol]
      Est. Disp22 (T)              -2.02041663 [mEh]      -1.26783058 [kcal/mol]      -5.30460313 [kJ/mol]
      Exch-Disp20                   2.43364357 [mEh]       1.52713440 [kcal/mol]       6.38953032 [kJ/mol]

  Total HF                        -39.13004253 [mEh]     -24.55447240 [kcal/mol]    -102.73591251 [kJ/mol]
  Total SAPT0                     -47.53826554 [mEh]     -29.83071200 [kcal/mol]    -124.81169899 [kJ/mol]
  Total SAPT2                     -45.02458946 [mEh]     -28.25335644 [kcal/mol]    -118.21204333 [kJ/mol]
  Total SAPT2+                    -46.43784339 [mEh]     -29.14018667 [kcal/mol]    -121.92254103 [kJ/mol]

  Special recipe for scaled SAPT0 (see Manual):
    Electrostatics sSAPT0         -47.41268937 [mEh]     -29.75191176 [kcal/mol]    -124.48199879 [kJ/mol]
    Exchange sSAPT0                23.23987086 [mEh]      14.58323913 [kcal/mol]      61.01627254 [kJ/mol]
    Induction sSAPT0              -14.58694238 [mEh]      -9.15344454 [kcal/mol]     -38.29801194 [kJ/mol]
    Dispersion sSAPT0              -8.32896631 [mEh]      -5.22650526 [kcal/mol]     -21.86769802 [kJ/mol]
  Total sSAPT0                    -47.08872719 [mEh]     -29.54862242 [kcal/mol]    -123.63143621 [kJ/mol]
  --------------------------------------------------------------------------------------------------------

*** Psi4 exiting successfully. Buy a developer a beer!
