                               Psi4 1.9 release

  ==> Input File <==

--------------------------------------------------------------------------
MEMORY 60 GB

molecule dimer {
-1 1
Cl     5.355156     0.000000     0.000000
--
0 1
O      0.000000    -0.107289     1.572847
H     -0.369135     0.578119     1.010976
H      0.913486    -0.160341     1.215831
O      0.000000     0.107289    -1.572847
H     -0.369135    -0.578119    -1.010976
H      0.913486     0.160341    -1.215831

units ang
no_reorient
no_com
symmetry c1
}

set {
basis        aug-cc-pVTZ
scf_type     df
}

energy("sapt2+")
--------------------------------------------------------------------------

  //              Dimer HF             //
    Molecular point group: c1
  Charge       = -1
  Multiplicity = 1
  Basis Set: AUG-CC-PVTZ
    Blend: AUG-CC-PVTZ
  Basis Set: (AUG-CC-PVTZ AUX)
    Blend: AUG-CC-PVTZ-JKFIT
  @DF-RHF Final Energy:  -611.70214020629794
    Total Energy =                       -611.7021402062978268
 Dipole X            :       -183.2937642          174.0935780           -9.2001862
 Dipole Y            :         -0.0000000            0.0000000           -0.0000000
 Dipole Z            :         -0.0000000            0.0000000           -0.0000000
 Magnitude           :                                                    9.2001862
  //            Monomer A HF           //
    Molecular point group: c1
  Multiplicity = 1
  Basis Set: AUG-CC-PVTZ
    Blend: AUG-CC-PVTZ
  Basis Set: (AUG-CC-PVTZ AUX)
    Blend: AUG-CC-PVTZ-JKFIT
  @DF-RHF Final Energy:  -459.57348588809828
    Total Energy =                       -459.5734858880982756
  //            Monomer B HF           //
    Molecular point group: c1

    Geometry (in Angstrom), charge = 0, multiplicity = 1:

       Center              X                  Y                   Z               Mass
    ------------   -----------------  -----------------  -----------------  -----------------
      Gh(CL)          5.355156000000     0.000000000000     0.000000000000    34.968852682000
         O            0.000000000000    -0.107289000000     1.572847000000    15.994914619570
         H           -0.369135000000     0.578119000000     1.010976000000     1.007825032230
         H            0.913486000000    -0.160341000000     1.215831000000     1.007825032230
         O            0.000000000000     0.107289000000    -1.572847000000    15.994914619570
         H           -0.369135000000    -0.578119000000    -1.010976000000     1.007825032230
         H            0.913486000000     0.160341000000    -1.215831000000     1.007825032230

  Charge       = 0
  Multiplicity = 1
  Basis Set: AUG-CC-PVTZ
    Blend: AUG-CC-PVTZ
  Basis Set: (AUG-CC-PVTZ AUX)
    Blend: AUG-CC-PVTZ-JKFIT

    Orbital Energies [Eh]
    ---------------------

    Doubly Occupied:

       1A    -20.582453     2A    -20.582449     3A     -1.365389
       4A     -1.358268     5A     -0.717605     6A     -0.711496
       7A     -0.611641     8A     -0.594379     9A     -0.527576
      10A     -0.516212

  @DF-RHF Final Energy:  -152.11626184020736

   => Energetics <=

    Nuclear Repulsion Energy =             35.8040005219439550
    One-Electron Energy =                -280.7055874196190075
    Two-Electron Energy =                  92.7853250574677304
    Total Energy =                       -152.1162618402073292
 Dipole X            :         -1.3930456            2.0573486            0.6643031
 Dipole Y            :         -0.0000000            0.0000000           -0.0000000
 Dipole Z            :         -0.0000000            0.0000000           -0.0000000
 Magnitude           :                                                    0.6643031

    SAPT Results
  --------------------------------------------------------------------------------------------------------
    Electrostatics                -10.83872669 [mEh]      -6.80140368 [kcal/mol]     -28.45707301 [kJ/mol]
      Elst10,r                    -11.39843739 [mEh]      -7.15262745 [kcal/mol]     -29.92659325 [kJ/mol]
      Elst12,r                      0.55971070 [mEh]       0.35122377 [kcal/mol]       1.46952024 [kJ/mol]

    Exchange                        0.07446509 [mEh]       0.04672755 [kcal/mol]       0.19550807 [kJ/mol]
      Exch10                        0.05572855 [mEh]       0.03497020 [kcal/mol]       0.14631530 [kJ/mol]
      Exch10(S^2)                   0.05572474 [mEh]       0.03496780 [kcal/mol]       0.14630529 [kJ/mol]
      Exch11(S^2)                   0.00282868 [mEh]       0.00177502 [kcal/mol]       0.00742670 [kJ/mol]
      Exch12(S^2)                   0.01590786 [mEh]       0.00998233 [kcal/mol]       0.04176608 [kJ/mol]

    Induction                      -1.14840974 [mEh]      -0.72063799 [kcal/mol]      -3.01514934 [kJ/mol]
      Ind20,r                      -1.05945276 [mEh]      -0.66481664 [kcal/mol]      -2.78159283 [kJ/mol]
      Ind22                        -0.10273421 [mEh]      -0.06446669 [kcal/mol]      -0.26972863 [kJ/mol]
      Exch-Ind20,r                  0.04221579 [mEh]       0.02649081 [kcal/mol]       0.11083753 [kJ/mol]
      Exch-Ind22                    0.00409363 [mEh]       0.00256879 [kcal/mol]       0.01074782 [kJ/mol]
      delta HF,r (2)               -0.03253218 [mEh]      -0.02041425 [kcal/mol]      -0.08541322 [kJ/mol]

    Dispersion                     -0.31004348 [mEh]      -0.19455522 [kcal/mol]      -0.81401903 [kJ/mol]
      Disp20                       -0.27872942 [mEh]      -0.17490535 [kcal/mol]      -0.73180399 [kJ/mol]
      Disp21                        0.02463970 [mEh]       0.01546165 [kcal/mol]       0.06469153 [kJ/mol]
      Disp22 (SDQ)                 -0.00520850 [mEh]      -0.00326838 [kcal/mol]      -0.01367491 [kJ/mol]
      Disp22 (T)                   -0.05443466 [mEh]      -0.03415827 [kcal/mol]      -0.14291819 [kJ/mol]
      Est. Disp22 (T)              -0.06010318 [mEh]      -0.03771531 [kcal/mol]      -0.15780087 [kJ/mol]
      Exch-Disp20                   0.00935792 [mEh]       0.00587218 [kcal/mol]       0.02456920 [kJ/mol]

  Total HF                        -12.39247799 [mEh]      -7.77639734 [kcal/mol]     -32.53644649 [kJ/mol]
  Total SAPT0                     -12.66184950 [mEh]      -7.94543051 [kcal/mol]     -33.24368127 [kJ/mol]
  Total SAPT2                     -12.18204284 [mEh]      -7.64434729 [kcal/mol]     -31.98394907 [kJ/mol]
  Total SAPT2+                    -12.22271481 [mEh]      -7.66986934 [kcal/mol]     -32.09073332 [kJ/mol]

  Special recipe for scaled SAPT0 (see Manual):
    Electrostatics sSAPT0         -11.39843739 [mEh]      -7.15262745 [kcal/mol]     -29.92659325 [kJ/mol]
    Exchange sSAPT0                 0.05572855 [mEh]       0.03497020 [kcal/mol]       0.14631530 [kJ/mol]
    Induction sSAPT0               -1.04976049 [mEh]      -0.65873465 [kcal/mol]      -2.75614579 [kJ/mol]
    Dispersion sSAPT0              -0.26936958 [mEh]      -0.16903197 [kcal/mol]      -0.70722974 [kJ/mol]
  Total sSAPT0                    -12.66183891 [mEh]      -7.94542387 [kcal/mol]     -33.24365349 [kJ/mol]
  --------------------------------------------------------------------------------------------------------

*** Psi4 exiting successfully. Buy a developer a beer!
