                               Psi4 1.9 release

  ==> Input File <==

--------------------------------------------------------------------------
MEMORY 60 GB

molecule dimer {
-1 1
Cl     3.213094     0.000000     0.000000
--
0 1
O      0.000000    -0.107289     1.572847
H     -0.369135     0.578119     1.010976
H      0.913486    -0.160341     1.215831
O      0.000000     0.107289    -1.572847
H     -0.369135    -0.578119    -1.010976
H      0.913486     0.160341    -1.215831

units ang
no_reorient
no_com
symmetry c1
}

set {
basis        aug-cc-pVTZ
scf_type     df
}

energy("sapt2+")
--------------------------------------------------------------------------

  //              Dimer HF             //
    Molecular point group: c1
  Charge       = -1
  Multiplicity = 1
  Basis Set: AUG-CC-PVTZ
    Blend: AUG-CC-PVTZ
  Basis Set: (AUG-CC-PVTZ AUX)
    Blend: AUG-CC-PVTZ-JKFIT
  @DF-RHF Final Energy:  -611.72631473151250
    Total Energy =                       -611.7263147315125025
 Dipole X            :       -109.9686003          105.2790991           -4.6895012
 Dipole Y            :          0.0000000            0.0000000            0.0000000
 Dipole Z            :          0.0000000            0.0000000            0.0000000
 Magnitude           :                                                    4.6895012
  //            Monomer A HF           //
    Molecular point group: c1
  Multiplicity = 1
  Basis Set: AUG-CC-PVTZ
    Blend: AUG-CC-PVTZ
  Basis Set: (AUG-CC-PVTZ AUX)
    Blend: AUG-CC-PVTZ-JKFIT
  @DF-RHF Final Energy:  -459.57351386513335
    Total Energy =                       -459.5735138651333500
  //            Monomer B HF           //
    Molecular point group: c1

    Geometry (in Angstrom), charge = 0, multiplicity = 1:

       Center              X                  Y                   Z               Mass
    ------------   -----------------  -----------------  -----------------  -----------------
      Gh(CL)          3.213094000000     0.000000000000     0.000000000000    34.968852682000
         O            0.000000000000    -0.107289000000     1.572847000000    15.994914619570
         H           -0.369135000000     0.578119000000     1.010976000000     1.007825032230
         H            0.913486000000    -0.160341000000     1.215831000000     1.007825032230
         O            0.000000000000     0.107289000000    -1.572847000000    15.994914619570
         H           -0.369135000000    -0.578119000000    -1.010976000000     1.007825032230
         H            0.913486000000     0.160341000000    -1.215831000000     1.007825032230

  Charge       = 0
  Multiplicity = 1
  Basis Set: AUG-CC-PVTZ
    Blend: AUG-CC-PVTZ
  Basis Set: (AUG-CC-PVTZ AUX)
    Blend: AUG-CC-PVTZ-JKFIT

    Orbital Energies [Eh]
    ---------------------

    Doubly Occupied:

       1A    -20.582457     2A    -20.582454     3A     -1.365372
       4A     -1.358251     5A     -0.717588     6A     -0.711478
       7A     -0.611629     8A     -0.594367     9A     -0.527561
      10A     -0.516198

  @DF-RHF Final Energy:  -152.11629093730178

   => Energetics <=

    Nuclear Repulsion Energy =             35.8040005219439550
    One-Electron Energy =                -280.7058730838771794
    Two-Electron Energy =                  92.7855816246314618
    Total Energy =                       -152.1162909373017555
 Dipole X            :         -1.3930376            2.0573486            0.6643110
 Dipole Y            :          0.0000000            0.0000000            0.0000000
 Dipole Z            :         -0.0000000            0.0000000           -0.0000000
 Magnitude           :                                                    0.6643110

    SAPT Results
  --------------------------------------------------------------------------------------------------------
    Electrostatics                -37.12944219 [mEh]     -23.29907673 [kcal/mol]     -97.48333705 [kJ/mol]
      Elst10,r                    -37.97101434 [mEh]     -23.82717123 [kcal/mol]     -99.69288442 [kJ/mol]
      Elst12,r                      0.84157215 [mEh]       0.52809450 [kcal/mol]       2.20954738 [kJ/mol]

    Exchange                       13.66539527 [mEh]       8.57516500 [kcal/mol]      35.87849034 [kJ/mol]
      Exch10                       11.80754891 [mEh]       7.40934880 [kcal/mol]      31.00071539 [kJ/mol]
      Exch10(S^2)                  11.73268621 [mEh]       7.36237175 [kcal/mol]      30.80416341 [kJ/mol]
      Exch11(S^2)                   0.58674385 [mEh]       0.36818732 [kcal/mol]       1.54049576 [kJ/mol]
      Exch12(S^2)                   1.27110252 [mEh]       0.79762887 [kcal/mol]       3.33727920 [kJ/mol]

    Induction                     -11.21758788 [mEh]      -7.03914267 [kcal/mol]     -29.45177293 [kJ/mol]
      Ind20,r                     -13.87532321 [mEh]      -8.70689677 [kcal/mol]     -36.42965607 [kJ/mol]
      Ind22                        -1.54947877 [mEh]      -0.97231261 [kcal/mol]      -4.06815596 [kJ/mol]
      Exch-Ind20,r                  6.07455136 [mEh]       3.81183853 [kcal/mol]      15.94873239 [kJ/mol]
      Exch-Ind22                    0.67835453 [mEh]       0.42567390 [kcal/mol]       1.78101958 [kJ/mol]
      delta HF,r (2)               -2.54569179 [mEh]      -1.59744572 [kcal/mol]      -6.68371287 [kJ/mol]

    Dispersion                     -6.57016934 [mEh]      -4.12284351 [kcal/mol]     -17.24997723 [kJ/mol]
      Disp20                       -6.91767573 [mEh]      -4.34090706 [kcal/mol]     -18.16235512 [kJ/mol]
      Disp21                        0.36925226 [mEh]       0.23170929 [kcal/mol]       0.96947167 [kJ/mol]
      Disp22 (SDQ)                 -0.05096624 [mEh]      -0.03198180 [kcal/mol]      -0.13381184 [kJ/mol]
      Disp22 (T)                   -1.15156297 [mEh]      -0.72261667 [kcal/mol]      -3.02342816 [kJ/mol]
      Est. Disp22 (T)              -1.34062012 [mEh]      -0.84125183 [kcal/mol]      -3.51979764 [kJ/mol]
      Exch-Disp20                   1.36984049 [mEh]       0.85958788 [kcal/mol]       3.59651571 [kJ/mol]

  Total HF                        -36.50992908 [mEh]     -22.91032638 [kcal/mol]     -95.85680559 [kJ/mol]
  Total SAPT0                     -42.05776432 [mEh]     -26.39164555 [kcal/mol]    -110.42264500 [kJ/mol]
  Total SAPT2                     -40.22947004 [mEh]     -25.24437358 [kcal/mol]    -105.62245905 [kJ/mol]
  Total SAPT2+                    -41.25180415 [mEh]     -25.88589791 [kcal/mol]    -108.30659686 [kJ/mol]

  Special recipe for scaled SAPT0 (see Manual):
    Electrostatics sSAPT0         -37.97101434 [mEh]     -23.82717123 [kcal/mol]     -99.69288442 [kJ/mol]
    Exchange sSAPT0                11.80754891 [mEh]       7.40934880 [kcal/mol]      31.00071539 [kJ/mol]
    Induction sSAPT0              -10.22944054 [mEh]      -6.41907085 [kcal/mol]     -26.85739243 [kJ/mol]
    Dispersion sSAPT0              -5.52144597 [mEh]      -3.46475965 [kcal/mol]     -14.49655439 [kJ/mol]
  Total sSAPT0                    -41.91435194 [mEh]     -26.30165293 [kcal/mol]    -110.04611586 [kJ/mol]
  --------------------------------------------------------------------------------------------------------

*** Psi4 exiting successfully. Buy a developer a beer!
