                               Psi4 1.9 release

  ==> Input File <==

--------------------------------------------------------------------------
MEMORY 60 GB

molecule dimer {
-1 1
Cl     3.480851     0.000000     0.000000
--
0 1
O      0.000000    -0.107289     1.572847
H     -0.369135     0.578119     1.010976
H      0.913486    -0.160341     1.215831
O      0.000000     0.107289    -1.572847
H     -0.369135    -0.578119    -1.010976
H      0.913486     0.160341    -1.215831

units ang
no_reorient
no_com
symmetry c1
}

set {
basis        aug-cc-pVTZ
scf_type     df
}

energy("sapt2+")
--------------------------------------------------------------------------

  //              Dimer HF             //
    Molecular point group: c1
  Charge       = -1
  Multiplicity = 1
  Basis Set: AUG-CC-PVTZ
    Blend: AUG-CC-PVTZ
  Basis Set: (AUG-CC-PVTZ AUX)
    Blend: AUG-CC-PVTZ-JKFIT
  @DF-RHF Final Energy:  -611.72230915055047
    Total Energy =                       -611.7223091505504726
 Dipole X            :       -119.1580934          113.8808849           -5.2772085
 Dipole Y            :          0.0000000            0.0000000            0.0000000
 Dipole Z            :         -0.0000000            0.0000000           -0.0000000
 Magnitude           :                                                    5.2772085
  //            Monomer A HF           //
    Molecular point group: c1
  Multiplicity = 1
  Basis Set: AUG-CC-PVTZ
    Blend: AUG-CC-PVTZ
  Basis Set: (AUG-CC-PVTZ AUX)
    Blend: AUG-CC-PVTZ-JKFIT
  @DF-RHF Final Energy:  -459.57350695424122
    Total Energy =                       -459.5735069542412248
  //            Monomer B HF           //
    Molecular point group: c1

    Geometry (in Angstrom), charge = 0, multiplicity = 1:

       Center              X                  Y                   Z               Mass
    ------------   -----------------  -----------------  -----------------  -----------------
      Gh(CL)          3.480851000000     0.000000000000     0.000000000000    34.968852682000
         O            0.000000000000    -0.107289000000     1.572847000000    15.994914619570
         H           -0.369135000000     0.578119000000     1.010976000000     1.007825032230
         H            0.913486000000    -0.160341000000     1.215831000000     1.007825032230
         O            0.000000000000     0.107289000000    -1.572847000000    15.994914619570
         H           -0.369135000000    -0.578119000000    -1.010976000000     1.007825032230
         H            0.913486000000     0.160341000000    -1.215831000000     1.007825032230

  Charge       = 0
  Multiplicity = 1
  Basis Set: AUG-CC-PVTZ
    Blend: AUG-CC-PVTZ
  Basis Set: (AUG-CC-PVTZ AUX)
    Blend: AUG-CC-PVTZ-JKFIT

    Orbital Energies [Eh]
    ---------------------

    Doubly Occupied:

       1A    -20.582459     2A    -20.582455     3A     -1.365377
       4A     -1.358256     5A     -0.717593     6A     -0.711483
       7A     -0.611633     8A     -0.594371     9A     -0.527563
      10A     -0.516200

  @DF-RHF Final Energy:  -152.11628364560042

   => Energetics <=

    Nuclear Repulsion Energy =             35.8040005219439550
    One-Electron Energy =                -280.7057880369738427
    Two-Electron Energy =                  92.7855038694294763
    Total Energy =                       -152.1162836456004186
 Dipole X            :         -1.3930615            2.0573486            0.6642871
 Dipole Y            :          0.0000000            0.0000000            0.0000000
 Dipole Z            :         -0.0000000            0.0000000           -0.0000000
 Magnitude           :                                                    0.6642871

    SAPT Results
  --------------------------------------------------------------------------------------------------------
    Electrostatics                -30.23469862 [mEh]     -18.97255982 [kcal/mol]     -79.38119030 [kJ/mol]
      Elst10,r                    -31.17826434 [mEh]     -19.56465625 [kcal/mol]     -81.85852176 [kJ/mol]
      Elst12,r                      0.94356572 [mEh]       0.59209643 [kcal/mol]       2.47733146 [kJ/mol]

    Exchange                        7.03728377 [mEh]       4.41596223 [kcal/mol]      18.47638599 [kJ/mol]
      Exch10                        5.97468222 [mEh]       3.74916969 [kcal/mol]      15.68652600 [kJ/mol]
      Exch10(S^2)                   5.95239519 [mEh]       3.73518437 [kcal/mol]      15.62801142 [kJ/mol]
      Exch11(S^2)                   0.31186651 [mEh]       0.19569919 [kcal/mol]       0.81880540 [kJ/mol]
      Exch12(S^2)                   0.75073505 [mEh]       0.47109335 [kcal/mol]       1.97105459 [kJ/mol]

    Induction                      -7.95732054 [mEh]      -4.99329403 [kcal/mol]     -20.89194220 [kJ/mol]
      Ind20,r                      -9.14603418 [mEh]      -5.73922309 [kcal/mol]     -24.01290942 [kJ/mol]
      Ind22                        -0.99907944 [mEh]      -0.62693181 [kcal/mol]      -2.62308270 [kJ/mol]
      Exch-Ind20,r                  3.26564793 [mEh]       2.04922502 [kcal/mol]       8.57395747 [kJ/mol]
      Exch-Ind22                    0.35672748 [mEh]       0.22384987 [kcal/mol]       0.93658786 [kJ/mol]
      delta HF,r (2)               -1.43458234 [mEh]      -0.90021401 [kcal/mol]      -3.76649541 [kJ/mol]

    Dispersion                     -4.38661030 [mEh]      -2.75263952 [kcal/mol]     -11.51704376 [kJ/mol]
      Disp20                       -4.43090075 [mEh]      -2.78043220 [kcal/mol]     -11.63332833 [kJ/mol]
      Disp21                        0.22421083 [mEh]       0.14069442 [kcal/mol]       0.58866546 [kJ/mol]
      Disp22 (SDQ)                 -0.05067416 [mEh]      -0.03179851 [kcal/mol]      -0.13304498 [kJ/mol]
      Disp22 (T)                   -0.76189198 [mEh]      -0.47809444 [kcal/mol]      -2.00034712 [kJ/mol]
      Est. Disp22 (T)              -0.88501522 [mEh]      -0.55535543 [kcal/mol]      -2.32360713 [kJ/mol]
      Exch-Disp20                   0.75576899 [mEh]       0.47425220 [kcal/mol]       1.98427122 [kJ/mol]

  Total HF                        -32.51855071 [mEh]     -20.40569864 [kcal/mol]     -85.37744312 [kJ/mol]
  Total SAPT0                     -36.19368247 [mEh]     -22.71187864 [kcal/mol]     -95.02650023 [kJ/mol]
  Total SAPT2                     -34.82986716 [mEh]     -21.85607161 [kcal/mol]     -91.44580362 [kJ/mol]
  Total SAPT2+                    -35.54134570 [mEh]     -22.30253114 [kcal/mol]     -93.31379027 [kJ/mol]

  Special recipe for scaled SAPT0 (see Manual):
    Electrostatics sSAPT0         -31.17826434 [mEh]     -19.56465625 [kcal/mol]     -81.85852176 [kJ/mol]
    Exchange sSAPT0                 5.97468222 [mEh]       3.74916969 [kcal/mol]      15.68652600 [kJ/mol]
    Induction sSAPT0               -7.27814923 [mEh]      -4.56710760 [kcal/mol]     -19.10877818 [kJ/mol]
    Dispersion sSAPT0              -3.66661066 [mEh]      -2.30083292 [kcal/mol]      -9.62668496 [kJ/mol]
  Total sSAPT0                    -36.14834202 [mEh]     -22.68342708 [kcal/mol]     -94.90745890 [kJ/mol]
  --------------------------------------------------------------------------------------------------------

*** Psi4 exiting successfully. Buy a developer a beer!
