                               Psi4 1.9 release

  ==> Input File <==

--------------------------------------------------------------------------
MEMORY 60 GB

molecule dimer {
-1 1
Cl     2.409820     0.000000     0.000000
--
0 1
O      0.000000    -0.107289     1.572847
H     -0.369135     0.578119     1.010976
H      0.913486    -0.160341     1.215831
O      0.000000     0.107289    -1.572847
H     -0.369135    -0.578119    -1.010976
H      0.913486     0.160341    -1.215831

units ang
no_reorient
no_com
symmetry c1
}

set {
basis        aug-cc-pVTZ
scf_type     df
}

energy("sapt2+")
--------------------------------------------------------------------------

  //              Dimer HF             //
    Molecular point group: c1
  Charge       = -1
  Multiplicity = 1
  Basis Set: AUG-CC-PVTZ
    Blend: AUG-CC-PVTZ
  Basis Set: (AUG-CC-PVTZ AUX)
    Blend: AUG-CC-PVTZ-JKFIT
  @DF-RHF Final Energy:  -611.71759953242190
    Total Energy =                       -611.7175995324219002
 Dipole X            :        -82.4007755           79.4736454           -2.9271301
 Dipole Y            :         -0.0000000            0.0000000           -0.0000000
 Dipole Z            :          0.0000000            0.0000000            0.0000000
 Magnitude           :                                                    2.9271301
  //            Monomer A HF           //
    Molecular point group: c1
  Multiplicity = 1
  Basis Set: AUG-CC-PVTZ
    Blend: AUG-CC-PVTZ
  Basis Set: (AUG-CC-PVTZ AUX)
    Blend: AUG-CC-PVTZ-JKFIT
  @DF-RHF Final Energy:  -459.57354162497541
    Total Energy =                       -459.5735416249754621
  //            Monomer B HF           //
    Molecular point group: c1

    Geometry (in Angstrom), charge = 0, multiplicity = 1:

       Center              X                  Y                   Z               Mass
    ------------   -----------------  -----------------  -----------------  -----------------
      Gh(CL)          2.409820000000     0.000000000000     0.000000000000    34.968852682000
         O            0.000000000000    -0.107289000000     1.572847000000    15.994914619570
         H           -0.369135000000     0.578119000000     1.010976000000     1.007825032230
         H            0.913486000000    -0.160341000000     1.215831000000     1.007825032230
         O            0.000000000000     0.107289000000    -1.572847000000    15.994914619570
         H           -0.369135000000    -0.578119000000    -1.010976000000     1.007825032230
         H            0.913486000000     0.160341000000    -1.215831000000     1.007825032230

  Charge       = 0
  Multiplicity = 1
  Basis Set: AUG-CC-PVTZ
    Blend: AUG-CC-PVTZ
  Basis Set: (AUG-CC-PVTZ AUX)
    Blend: AUG-CC-PVTZ-JKFIT

    Orbital Energies [Eh]
    ---------------------

    Doubly Occupied:

       1A    -20.582426     2A    -20.582422     3A     -1.365350
       4A     -1.358230     5A     -0.717569     6A     -0.711461
       7A     -0.611610     8A     -0.594348     9A     -0.527553
      10A     -0.516189

  @DF-RHF Final Energy:  -152.11632365037460

   => Energetics <=

    Nuclear Repulsion Energy =             35.8040005219439550
    One-Electron Energy =                -280.7063314084310264
    Two-Electron Energy =                  92.7860072361124821
    Total Energy =                       -152.1163236503745964
 Dipole X            :         -1.3927510            2.0573486            0.6645976
 Dipole Y            :         -0.0000000            0.0000000           -0.0000000
 Dipole Z            :          0.0000000            0.0000000            0.0000000
 Magnitude           :                                                    0.6645976

    SAPT Results
  --------------------------------------------------------------------------------------------------------
    Electrostatics                -82.70516569 [mEh]     -51.89827500 [kcal/mol]    -217.14238259 [kJ/mol]
      Elst10,r                    -81.24789390 [mEh]     -50.98382314 [kcal/mol]    -213.31631603 [kJ/mol]
      Elst12,r                     -1.45727179 [mEh]      -0.91445185 [kcal/mol]      -3.82606656 [kJ/mol]

    Exchange                       95.03877631 [mEh]      59.63773251 [kcal/mol]     249.52427282 [kJ/mol]
      Exch10                       86.65737168 [mEh]      54.37832170 [kcal/mol]     227.51889800 [kJ/mol]
      Exch10(S^2)                  84.20700451 [mEh]      52.84069309 [kcal/mol]     221.08545988 [kJ/mol]
      Exch11(S^2)                   2.90438926 [mEh]       1.82253178 [kcal/mol]       7.62547295 [kJ/mol]
      Exch12(S^2)                   5.47701537 [mEh]       3.43687903 [kcal/mol]      14.37990187 [kJ/mol]

    Induction                     -35.90647044 [mEh]     -22.53165037 [kcal/mol]     -94.27242514 [kJ/mol]
      Ind20,r                     -63.89543034 [mEh]     -40.09498787 [kcal/mol]    -167.75742924 [kJ/mol]
      Ind22                        -8.12616573 [mEh]      -5.09924598 [kcal/mol]     -21.33524519 [kJ/mol]
      Exch-Ind20,r                 42.17224814 [mEh]      26.46348524 [kcal/mol]     110.72322223 [kJ/mol]
      Exch-Ind22                    5.36343015 [mEh]       3.36560323 [kcal/mol]      14.08168393 [kJ/mol]
      delta HF,r (2)              -11.42055266 [mEh]      -7.16650499 [kcal/mol]     -29.98465687 [kJ/mol]

    Dispersion                    -21.73627165 [mEh]     -13.63971639 [kcal/mol]     -57.06857336 [kJ/mol]
      Disp20                      -26.50351698 [mEh]     -16.63120799 [kcal/mol]     -69.58497424 [kJ/mol]
      Disp21                        2.09609351 [mEh]       1.31531853 [kcal/mol]       5.50329274 [kJ/mol]
      Disp22 (SDQ)                  0.11256844 [mEh]       0.07063776 [kcal/mol]       0.29554839 [kJ/mol]
      Disp22 (T)                   -4.02549308 [mEh]      -2.52603504 [kcal/mol]     -10.56893062 [kJ/mol]
      Est. Disp22 (T)              -4.53733741 [mEh]      -2.84722221 [kcal/mol]     -11.91277773 [kJ/mol]
      Exch-Disp20                   7.09592079 [mEh]       4.45275752 [kcal/mol]      18.63033748 [kJ/mol]

  Total HF                        -27.73425707 [mEh]     -17.40350906 [kcal/mol]     -72.81628191 [kJ/mol]
  Total SAPT0                     -47.14185326 [mEh]     -29.58195953 [kcal/mol]    -123.77091867 [kJ/mol]
  Total SAPT2                     -42.98045600 [mEh]     -26.97064332 [kcal/mol]    -112.84517167 [kJ/mol]
  Total SAPT2+                    -45.30913146 [mEh]     -28.43190924 [kcal/mol]    -118.95910827 [kJ/mol]

  Special recipe for scaled SAPT0 (see Manual):
    Electrostatics sSAPT0         -81.24789390 [mEh]     -50.98382314 [kcal/mol]    -213.31631603 [kJ/mol]
    Exchange sSAPT0                86.65737168 [mEh]      54.37832170 [kcal/mol]     227.51889800 [kJ/mol]
    Induction sSAPT0              -29.35401289 [mEh]     -18.41992118 [kcal/mol]     -77.06895022 [kJ/mol]
    Dispersion sSAPT0             -18.76993592 [mEh]     -11.77831261 [kcal/mol]     -49.28045997 [kJ/mol]
  Total sSAPT0                    -42.71447102 [mEh]     -26.80373524 [kcal/mol]    -112.14682822 [kJ/mol]
  --------------------------------------------------------------------------------------------------------

*** Psi4 exiting successfully. Buy a developer a beer!
