                               Psi4 1.9 release

  ==> Input File <==

--------------------------------------------------------------------------
MEMORY 60 GB

molecule dimer {
-1 1
Cl     3.748609     0.000000     0.000000
--
0 1
O      0.000000    -0.107289     1.572847
H     -0.369135     0.578119     1.010976
H      0.913486    -0.160341     1.215831
O      0.000000     0.107289    -1.572847
H     -0.369135    -0.578119    -1.010976
H      0.913486     0.160341    -1.215831

units ang
no_reorient
no_com
symmetry c1
}

set {
basis        aug-cc-pVTZ
scf_type     df
}

energy("sapt2+")
--------------------------------------------------------------------------

  //              Dimer HF             //
    Molecular point group: c1
  Charge       = -1
  Multiplicity = 1
  Basis Set: AUG-CC-PVTZ
    Blend: AUG-CC-PVTZ
  Basis Set: (AUG-CC-PVTZ AUX)
    Blend: AUG-CC-PVTZ-JKFIT
  @DF-RHF Final Energy:  -611.71813760239388
    Total Energy =                       -611.7181376023938810
 Dipole X            :       -128.3417192          122.4827028           -5.8590164
 Dipole Y            :         -0.0000000            0.0000000           -0.0000000
 Dipole Z            :         -0.0000000            0.0000000           -0.0000000
 Magnitude           :                                                    5.8590164
  //            Monomer A HF           //
    Molecular point group: c1
  Multiplicity = 1
  Basis Set: AUG-CC-PVTZ
    Blend: AUG-CC-PVTZ
  Basis Set: (AUG-CC-PVTZ AUX)
    Blend: AUG-CC-PVTZ-JKFIT
  @DF-RHF Final Energy:  -459.57350139817748
    Total Energy =                       -459.5735013981775410
  //            Monomer B HF           //
    Molecular point group: c1

    Geometry (in Angstrom), charge = 0, multiplicity = 1:

       Center              X                  Y                   Z               Mass
    ------------   -----------------  -----------------  -----------------  -----------------
      Gh(CL)          3.748609000000     0.000000000000     0.000000000000    34.968852682000
         O            0.000000000000    -0.107289000000     1.572847000000    15.994914619570
         H           -0.369135000000     0.578119000000     1.010976000000     1.007825032230
         H            0.913486000000    -0.160341000000     1.215831000000     1.007825032230
         O            0.000000000000     0.107289000000    -1.572847000000    15.994914619570
         H           -0.369135000000    -0.578119000000    -1.010976000000     1.007825032230
         H            0.913486000000     0.160341000000    -1.215831000000     1.007825032230

  Charge       = 0
  Multiplicity = 1
  Basis Set: AUG-CC-PVTZ
    Blend: AUG-CC-PVTZ
  Basis Set: (AUG-CC-PVTZ AUX)
    Blend: AUG-CC-PVTZ-JKFIT

    Orbital Energies [Eh]
    ---------------------

    Doubly Occupied:

       1A    -20.582458     2A    -20.582454     3A     -1.365381
       4A     -1.358260     5A     -0.717598     6A     -0.711488
       7A     -0.611635     8A     -0.594373     9A     -0.527566
      10A     -0.516204

  @DF-RHF Final Energy:  -152.11627712687635

   => Energetics <=

    Nuclear Repulsion Energy =             35.8040005219439550
    One-Electron Energy =                -280.7057249078999916
    Two-Electron Energy =                  92.7854472590796746
    Total Energy =                       -152.1162771268763549
 Dipole X            :         -1.3930713            2.0573486            0.6642773
 Dipole Y            :         -0.0000000            0.0000000           -0.0000000
 Dipole Z            :         -0.0000000            0.0000000           -0.0000000
 Magnitude           :                                                    0.6642773

    SAPT Results
  --------------------------------------------------------------------------------------------------------
    Electrostatics                -25.16321144 [mEh]     -15.79015357 [kcal/mol]     -66.06600253 [kJ/mol]
      Elst10,r                    -26.10738242 [mEh]     -16.38262980 [kcal/mol]     -68.54492310 [kJ/mol]
      Elst12,r                      0.94417098 [mEh]       0.59247624 [kcal/mol]       2.47892057 [kJ/mol]

    Exchange                        3.62486958 [mEh]       2.27464000 [kcal/mol]       9.51709376 [kJ/mol]
      Exch10                        3.02413283 [mEh]       1.89767200 [kcal/mol]       7.93985965 [kJ/mol]
      Exch10(S^2)                   3.01757837 [mEh]       1.89355901 [kcal/mol]       7.92265091 [kJ/mol]
      Exch11(S^2)                   0.16203363 [mEh]       0.10167764 [kcal/mol]       0.42541925 [kJ/mol]
      Exch12(S^2)                   0.43870311 [mEh]       0.27529036 [kcal/mol]       1.15181486 [kJ/mol]

    Induction                      -5.75532632 [mEh]      -3.61152179 [kcal/mol]     -15.11060718 [kJ/mol]
      Ind20,r                      -6.22255498 [mEh]      -3.90471220 [kcal/mol]     -16.33731585 [kJ/mol]
      Ind22                        -0.66802189 [mEh]      -0.41919007 [kcal/mol]      -1.75389124 [kJ/mol]
      Exch-Ind20,r                  1.75607526 [mEh]       1.10195386 [kcal/mol]       4.61057495 [kJ/mol]
      Exch-Ind22                    0.18852332 [mEh]       0.11830017 [kcal/mol]       0.49496791 [kJ/mol]
      delta HF,r (2)               -0.80934803 [mEh]      -0.50787355 [kcal/mol]      -2.12494295 [kJ/mol]

    Dispersion                     -2.93324375 [mEh]      -1.84063824 [kcal/mol]      -7.70123041 [kJ/mol]
      Disp20                       -2.85884774 [mEh]      -1.79395404 [kcal/mol]      -7.50590371 [kJ/mol]
      Disp21                        0.14511065 [mEh]       0.09105831 [kcal/mol]       0.38098796 [kJ/mol]
      Disp22 (SDQ)                 -0.04271453 [mEh]      -0.02680377 [kcal/mol]      -0.11214699 [kJ/mol]
      Disp22 (T)                   -0.50239984 [mEh]      -0.31526066 [kcal/mol]      -1.31905060 [kJ/mol]
      Est. Disp22 (T)              -0.58744573 [mEh]      -0.36862776 [kcal/mol]      -1.54233854 [kJ/mol]
      Exch-Disp20                   0.41065359 [mEh]       0.25768902 [kcal/mol]       1.07817086 [kJ/mol]

  Total HF                        -28.35907734 [mEh]     -17.79558970 [kcal/mol]     -74.45674730 [kJ/mol]
  Total SAPT0                     -30.80727149 [mEh]     -19.33185472 [kcal/mol]     -80.88448015 [kJ/mol]
  Total SAPT2                     -29.74186233 [mEh]     -18.66330038 [kcal/mol]     -78.08724879 [kJ/mol]
  Total SAPT2+                    -30.22691194 [mEh]     -18.96767360 [kcal/mol]     -79.36074636 [kJ/mol]

  Special recipe for scaled SAPT0 (see Manual):
    Electrostatics sSAPT0         -26.10738242 [mEh]     -16.38262980 [kcal/mol]     -68.54492310 [kJ/mol]
    Exchange sSAPT0                 3.02413283 [mEh]       1.89767200 [kcal/mol]       7.93985965 [kJ/mol]
    Induction sSAPT0               -5.26435979 [mEh]      -3.30343564 [kcal/mol]     -13.82157474 [kJ/mol]
    Dispersion sSAPT0              -2.44551240 [mEh]      -1.53458220 [kcal/mol]      -6.42069191 [kJ/mol]
  Total sSAPT0                    -30.79312178 [mEh]     -19.32297564 [kcal/mol]     -80.84733010 [kJ/mol]
  --------------------------------------------------------------------------------------------------------

*** Psi4 exiting successfully. Buy a developer a beer!
