                               Psi4 1.9 release

  ==> Input File <==

--------------------------------------------------------------------------
MEMORY 60 GB

molecule dimer {
-1 1
Cl     2.677578     0.000000     0.000000
--
0 1
O      0.000000    -0.107289     1.572847
H     -0.369135     0.578119     1.010976
H      0.913486    -0.160341     1.215831
O      0.000000     0.107289    -1.572847
H     -0.369135    -0.578119    -1.010976
H      0.913486     0.160341    -1.215831

units ang
no_reorient
no_com
symmetry c1
}

set {
basis        aug-cc-pVTZ
scf_type     df
}

energy("sapt2+")
--------------------------------------------------------------------------

  //              Dimer HF             //
    Molecular point group: c1
  Charge       = -1
  Multiplicity = 1
  Basis Set: AUG-CC-PVTZ
    Blend: AUG-CC-PVTZ
  Basis Set: (AUG-CC-PVTZ AUX)
    Blend: AUG-CC-PVTZ-JKFIT
  @DF-RHF Final Energy:  -611.72767900034637
    Total Energy =                       -611.7276790003462565
 Dipole X            :        -91.5834423           88.0754633           -3.5079790
 Dipole Y            :          0.0000000            0.0000000            0.0000000
 Dipole Z            :         -0.0000000            0.0000000           -0.0000000
 Magnitude           :                                                    3.5079790
  //            Monomer A HF           //
    Molecular point group: c1
  Multiplicity = 1
  Basis Set: AUG-CC-PVTZ
    Blend: AUG-CC-PVTZ
  Basis Set: (AUG-CC-PVTZ AUX)
    Blend: AUG-CC-PVTZ-JKFIT
  @DF-RHF Final Energy:  -459.57353031504834
    Total Energy =                       -459.5735303150483446
  //            Monomer B HF           //
    Molecular point group: c1

    Geometry (in Angstrom), charge = 0, multiplicity = 1:

       Center              X                  Y                   Z               Mass
    ------------   -----------------  -----------------  -----------------  -----------------
      Gh(CL)          2.677578000000     0.000000000000     0.000000000000    34.968852682000
         O            0.000000000000    -0.107289000000     1.572847000000    15.994914619570
         H           -0.369135000000     0.578119000000     1.010976000000     1.007825032230
         H            0.913486000000    -0.160341000000     1.215831000000     1.007825032230
         O            0.000000000000     0.107289000000    -1.572847000000    15.994914619570
         H           -0.369135000000    -0.578119000000    -1.010976000000     1.007825032230
         H            0.913486000000     0.160341000000    -1.215831000000     1.007825032230

  Charge       = 0
  Multiplicity = 1
  Basis Set: AUG-CC-PVTZ
    Blend: AUG-CC-PVTZ
  Basis Set: (AUG-CC-PVTZ AUX)
    Blend: AUG-CC-PVTZ-JKFIT

    Orbital Energies [Eh]
    ---------------------

    Doubly Occupied:

       1A    -20.582438     2A    -20.582434     3A     -1.365359
       4A     -1.358238     5A     -0.717576     6A     -0.711466
       7A     -0.611617     8A     -0.594354     9A     -0.527556
      10A     -0.516193

  @DF-RHF Final Energy:  -152.11630734121655

   => Energetics <=

    Nuclear Repulsion Energy =             35.8040005219439550
    One-Electron Energy =                -280.7061552831747804
    Two-Electron Energy =                  92.7858474200142638
    Total Energy =                       -152.1163073412165545
 Dipole X            :         -1.3928718            2.0573486            0.6644769
 Dipole Y            :         -0.0000000            0.0000000           -0.0000000
 Dipole Z            :         -0.0000000            0.0000000           -0.0000000
 Magnitude           :                                                    0.6644769

    SAPT Results
  --------------------------------------------------------------------------------------------------------
    Electrostatics                -61.16025049 [mEh]     -38.37863660 [kcal/mol]    -160.57621554 [kJ/mol]
      Elst10,r                    -61.02908978 [mEh]     -38.29633202 [kcal/mol]    -160.23185315 [kJ/mol]
      Elst12,r                     -0.13116071 [mEh]      -0.08230459 [kcal/mol]      -0.34436239 [kJ/mol]

    Exchange                       50.58131319 [mEh]      31.74025322 [kcal/mol]     132.80121948 [kJ/mol]
      Exch10                       45.28404236 [mEh]      28.41616559 [kcal/mol]     118.89323685 [kJ/mol]
      Exch10(S^2)                  44.49093378 [mEh]      27.91848245 [kcal/mol]     116.81093056 [kJ/mol]
      Exch11(S^2)                   1.83366814 [mEh]       1.15064413 [kcal/mol]       4.81429503 [kJ/mol]
      Exch12(S^2)                   3.46360269 [mEh]       2.17344350 [kcal/mol]       9.09368760 [kJ/mol]

    Induction                     -23.86523271 [mEh]     -14.97565962 [kcal/mol]     -62.65815986 [kJ/mol]
      Ind20,r                     -36.23953668 [mEh]     -22.74065259 [kcal/mol]     -95.14689044 [kJ/mol]
      Ind22                        -4.38919804 [mEh]      -2.75426335 [kcal/mol]     -11.52383787 [kJ/mol]
      Exch-Ind20,r                 21.63426657 [mEh]      13.57570723 [kcal/mol]      56.80075905 [kJ/mol]
      Exch-Ind22                    2.62026199 [mEh]       1.64423922 [kcal/mol]       6.87949690 [kJ/mol]
      delta HF,r (2)               -7.49102655 [mEh]      -4.70069013 [kcal/mol]     -19.66768751 [kJ/mol]

    Dispersion                    -14.64882937 [mEh]      -9.19227921 [kcal/mol]     -38.46049621 [kJ/mol]
      Disp20                      -16.99307681 [mEh]     -10.66331669 [kcal/mol]     -44.61531702 [kJ/mol]
      Disp21                        1.15338988 [mEh]       0.72376307 [kcal/mol]       3.02822470 [kJ/mol]
      Disp22 (SDQ)                  0.01423748 [mEh]       0.00893416 [kcal/mol]       0.03738051 [kJ/mol]
      Disp22 (T)                   -2.65355358 [mEh]      -1.66513001 [kcal/mol]      -6.96690396 [kJ/mol]
      Est. Disp22 (T)              -3.04068367 [mEh]      -1.90805781 [kcal/mol]      -7.98331387 [kJ/mol]
      Exch-Disp20                   4.21730375 [mEh]       2.64639806 [kcal/mol]      11.07252947 [kJ/mol]

  Total HF                        -37.84134408 [mEh]     -23.74580191 [kcal/mol]     -99.35243520 [kJ/mol]
  Total SAPT0                     -50.61711714 [mEh]     -31.76272054 [kcal/mol]    -132.89522275 [kJ/mol]
  Total SAPT2                     -47.21994308 [mEh]     -29.63096163 [kcal/mol]    -123.97594347 [kJ/mol]
  Total SAPT2+                    -49.09299939 [mEh]     -30.80632221 [kcal/mol]    -128.89365213 [kJ/mol]

  Special recipe for scaled SAPT0 (see Manual):
    Electrostatics sSAPT0         -61.02908978 [mEh]     -38.29633202 [kcal/mol]    -160.23185315 [kJ/mol]
    Exchange sSAPT0                45.28404236 [mEh]      28.41616559 [kcal/mol]     118.89323685 [kJ/mol]
    Induction sSAPT0              -20.91857295 [mEh]     -13.12660270 [kcal/mol]     -54.92170570 [kJ/mol]
    Dispersion sSAPT0             -12.54619196 [mEh]      -7.87285432 [kcal/mol]     -32.94002246 [kJ/mol]
  Total sSAPT0                    -49.20981233 [mEh]     -30.87962344 [kcal/mol]    -129.20034447 [kJ/mol]
  --------------------------------------------------------------------------------------------------------

*** Psi4 exiting successfully. Buy a developer a beer!
