                               Psi4 1.9 release

  ==> Input File <==

--------------------------------------------------------------------------
MEMORY 60 GB

molecule dimer {
-1 1
Cl     4.016367     0.000000     0.000000
--
0 1
O      0.000000    -0.107289     1.572847
H     -0.369135     0.578119     1.010976
H      0.913486    -0.160341     1.215831
O      0.000000     0.107289    -1.572847
H     -0.369135    -0.578119    -1.010976
H      0.913486     0.160341    -1.215831

units ang
no_reorient
no_com
symmetry c1
}

set {
basis        aug-cc-pVTZ
scf_type     df
}

energy("sapt2+")
--------------------------------------------------------------------------

  //              Dimer HF             //
    Molecular point group: c1
  Charge       = -1
  Multiplicity = 1
  Basis Set: AUG-CC-PVTZ
    Blend: AUG-CC-PVTZ
  Basis Set: (AUG-CC-PVTZ AUX)
    Blend: AUG-CC-PVTZ-JKFIT
  @DF-RHF Final Energy:  -611.71430909561582
    Total Energy =                       -611.7143090956158176
 Dipole X            :       -137.5182341          131.0845207           -6.4337135
 Dipole Y            :          0.0000000            0.0000000            0.0000000
 Dipole Z            :         -0.0000000            0.0000000           -0.0000000
 Magnitude           :                                                    6.4337135
  //            Monomer A HF           //
    Molecular point group: c1
  Multiplicity = 1
  Basis Set: AUG-CC-PVTZ
    Blend: AUG-CC-PVTZ
  Basis Set: (AUG-CC-PVTZ AUX)
    Blend: AUG-CC-PVTZ-JKFIT
  @DF-RHF Final Energy:  -459.57349772019069
    Total Energy =                       -459.5734977201907441
  //            Monomer B HF           //
    Molecular point group: c1

    Geometry (in Angstrom), charge = 0, multiplicity = 1:

       Center              X                  Y                   Z               Mass
    ------------   -----------------  -----------------  -----------------  -----------------
      Gh(CL)          4.016367000000     0.000000000000     0.000000000000    34.968852682000
         O            0.000000000000    -0.107289000000     1.572847000000    15.994914619570
         H           -0.369135000000     0.578119000000     1.010976000000     1.007825032230
         H            0.913486000000    -0.160341000000     1.215831000000     1.007825032230
         O            0.000000000000     0.107289000000    -1.572847000000    15.994914619570
         H           -0.369135000000    -0.578119000000    -1.010976000000     1.007825032230
         H            0.913486000000     0.160341000000    -1.215831000000     1.007825032230

  Charge       = 0
  Multiplicity = 1
  Basis Set: AUG-CC-PVTZ
    Blend: AUG-CC-PVTZ
  Basis Set: (AUG-CC-PVTZ AUX)
    Blend: AUG-CC-PVTZ-JKFIT

    Orbital Energies [Eh]
    ---------------------

    Doubly Occupied:

       1A    -20.582456     2A    -20.582452     3A     -1.365384
       4A     -1.358263     5A     -0.717601     6A     -0.711491
       7A     -0.611637     8A     -0.594374     9A     -0.527569
      10A     -0.516207

  @DF-RHF Final Energy:  -152.11627319255956

   => Energetics <=

    Nuclear Repulsion Energy =             35.8040005219439550
    One-Electron Energy =                -280.7056773244562464
    Two-Electron Energy =                  92.7854036099527519
    Total Energy =                       -152.1162731925595608
 Dipole X            :         -1.3930790            2.0573486            0.6642696
 Dipole Y            :          0.0000000            0.0000000            0.0000000
 Dipole Z            :         -0.0000000            0.0000000           -0.0000000
 Magnitude           :                                                    0.6642696

    SAPT Results
  --------------------------------------------------------------------------------------------------------
    Electrostatics                -21.30175352 [mEh]     -13.36705214 [kcal/mol]     -55.92774616 [kJ/mol]
      Elst10,r                    -22.19823746 [mEh]     -13.92960431 [kcal/mol]     -58.28146442 [kJ/mol]
      Elst12,r                      0.89648394 [mEh]       0.56255216 [kcal/mol]       2.35371825 [kJ/mol]

    Exchange                        1.87300084 [mEh]       1.17532577 [kcal/mol]       4.91756302 [kJ/mol]
      Exch10                        1.53535100 [mEh]       0.96344730 [kcal/mol]       4.03106351 [kJ/mol]
      Exch10(S^2)                   1.53343956 [mEh]       0.96224785 [kcal/mol]       4.02604502 [kJ/mol]
      Exch11(S^2)                   0.08307318 [mEh]       0.05212920 [kcal/mol]       0.21810859 [kJ/mol]
      Exch12(S^2)                   0.25457666 [mEh]       0.15974926 [kcal/mol]       0.66839092 [kJ/mol]

    Induction                      -4.23569718 [mEh]      -2.65794011 [kcal/mol]     -11.12082141 [kJ/mol]
      Ind20,r                      -4.35648352 [mEh]      -2.73373468 [kcal/mol]     -11.43794590 [kJ/mol]
      Ind22                        -0.45985406 [mEh]      -0.28856278 [kcal/mol]      -1.20734666 [kJ/mol]
      Exch-Ind20,r                  0.94218290 [mEh]       0.59122870 [kcal/mol]       2.47370087 [kJ/mol]
      Exch-Ind22                    0.09945329 [mEh]       0.06240788 [kcal/mol]       0.26111458 [kJ/mol]
      delta HF,r (2)               -0.46099579 [mEh]      -0.28927923 [kcal/mol]      -1.21034429 [kJ/mol]

    Dispersion                     -1.96717923 [mEh]      -1.23442360 [kcal/mol]      -5.16482836 [kJ/mol]
      Disp20                       -1.86427283 [mEh]      -1.16984886 [kcal/mol]      -4.89464763 [kJ/mol]
      Disp21                        0.09976135 [mEh]       0.06260119 [kcal/mol]       0.26192340 [kJ/mol]
      Disp22 (SDQ)                 -0.03305965 [mEh]      -0.02074524 [kcal/mol]      -0.08679809 [kJ/mol]
      Disp22 (T)                   -0.33610779 [mEh]      -0.21091082 [kcal/mol]      -0.88245089 [kJ/mol]
      Est. Disp22 (T)              -0.39029054 [mEh]      -0.24491101 [kcal/mol]      -1.02470767 [kJ/mol]
      Exch-Disp20                   0.22068243 [mEh]       0.13848031 [kcal/mol]       0.57940164 [kJ/mol]

  Total HF                        -24.53818287 [mEh]     -15.39794222 [kcal/mol]     -64.42499024 [kJ/mol]
  Total SAPT0                     -26.18177326 [mEh]     -16.42931076 [kcal/mol]     -68.74023623 [kJ/mol]
  Total SAPT2                     -25.30804026 [mEh]     -15.88103503 [kcal/mol]     -66.44625055 [kJ/mol]
  Total SAPT2+                    -25.63162909 [mEh]     -16.08409008 [kcal/mol]     -67.29583291 [kJ/mol]

  Special recipe for scaled SAPT0 (see Manual):
    Electrostatics sSAPT0         -22.19823746 [mEh]     -13.92960431 [kcal/mol]     -58.28146442 [kJ/mol]
    Exchange sSAPT0                 1.53535100 [mEh]       0.96344730 [kcal/mol]       4.03106351 [kJ/mol]
    Induction sSAPT0               -3.87176871 [mEh]      -2.42957154 [kcal/mol]     -10.16532734 [kJ/mol]
    Dispersion sSAPT0              -1.64276412 [mEh]      -1.03085005 [kcal/mol]      -4.31307661 [kJ/mol]
  Total sSAPT0                    -26.17741929 [mEh]     -16.42657860 [kcal/mol]     -68.72880487 [kJ/mol]
  --------------------------------------------------------------------------------------------------------

*** Psi4 exiting successfully. Buy a developer a beer!
