                               Psi4 1.9 release

  ==> Input File <==

--------------------------------------------------------------------------
MEMORY 60 GB

molecule dimer {
-1 1
Cl     2.811457     0.000000     0.000000
--
0 1
O      0.000000    -0.107289     1.572847
H     -0.369135     0.578119     1.010976
H      0.913486    -0.160341     1.215831
O      0.000000     0.107289    -1.572847
H     -0.369135    -0.578119    -1.010976
H      0.913486     0.160341    -1.215831

units ang
no_reorient
no_com
symmetry c1
}

set {
basis        aug-cc-pVTZ
scf_type     df
}

energy("sapt2+")
--------------------------------------------------------------------------

  //              Dimer HF             //
    Molecular point group: c1
  Charge       = -1
  Multiplicity = 1
  Basis Set: AUG-CC-PVTZ
    Blend: AUG-CC-PVTZ
  Basis Set: (AUG-CC-PVTZ AUX)
    Blend: AUG-CC-PVTZ-JKFIT
  @DF-RHF Final Energy:  -611.72903938566742
    Total Energy =                       -611.7290393856675337
 Dipole X            :        -96.1790180           92.3763723           -3.8026458
 Dipole Y            :          0.0000000            0.0000000            0.0000000
 Dipole Z            :         -0.0000000            0.0000000           -0.0000000
 Magnitude           :                                                    3.8026458
  //            Monomer A HF           //
    Molecular point group: c1
  Multiplicity = 1
  Basis Set: AUG-CC-PVTZ
    Blend: AUG-CC-PVTZ
  Basis Set: (AUG-CC-PVTZ AUX)
    Blend: AUG-CC-PVTZ-JKFIT
  @DF-RHF Final Energy:  -459.57352681651679
    Total Energy =                       -459.5735268165167327
  //            Monomer B HF           //
    Molecular point group: c1

    Geometry (in Angstrom), charge = 0, multiplicity = 1:

       Center              X                  Y                   Z               Mass
    ------------   -----------------  -----------------  -----------------  -----------------
      Gh(CL)          2.811457000000     0.000000000000     0.000000000000    34.968852682000
         O            0.000000000000    -0.107289000000     1.572847000000    15.994914619570
         H           -0.369135000000     0.578119000000     1.010976000000     1.007825032230
         H            0.913486000000    -0.160341000000     1.215831000000     1.007825032230
         O            0.000000000000     0.107289000000    -1.572847000000    15.994914619570
         H           -0.369135000000    -0.578119000000    -1.010976000000     1.007825032230
         H            0.913486000000     0.160341000000    -1.215831000000     1.007825032230

  Charge       = 0
  Multiplicity = 1
  Basis Set: AUG-CC-PVTZ
    Blend: AUG-CC-PVTZ
  Basis Set: (AUG-CC-PVTZ AUX)
    Blend: AUG-CC-PVTZ-JKFIT

    Orbital Energies [Eh]
    ---------------------

    Doubly Occupied:

       1A    -20.582444     2A    -20.582440     3A     -1.365362
       4A     -1.358241     5A     -0.717579     6A     -0.711469
       7A     -0.611620     8A     -0.594358     9A     -0.527558
      10A     -0.516194

  @DF-RHF Final Energy:  -152.11630187263603

   => Energetics <=

    Nuclear Repulsion Energy =             35.8040005219439550
    One-Electron Energy =                -280.7060697954201487
    Two-Electron Energy =                  92.7857674008401716
    Total Energy =                       -152.1163018726360292
 Dipole X            :         -1.3929274            2.0573486            0.6644212
 Dipole Y            :          0.0000000            0.0000000            0.0000000
 Dipole Z            :         -0.0000000            0.0000000           -0.0000000
 Magnitude           :                                                    0.6644212

    SAPT Results
  --------------------------------------------------------------------------------------------------------
    Electrostatics                -53.30660904 [mEh]     -33.45040219 [kcal/mol]    -139.95648276 [kJ/mol]
      Elst10,r                    -53.57232639 [mEh]     -33.61714234 [kcal/mol]    -140.65412357 [kJ/mol]
      Elst12,r                      0.26571735 [mEh]       0.16674016 [kcal/mol]       0.69764081 [kJ/mol]

    Exchange                       36.62404963 [mEh]      22.98193811 [kcal/mol]      96.15642906 [kJ/mol]
      Exch10                       32.49573232 [mEh]      20.39137989 [kcal/mol]      85.31753346 [kJ/mol]
      Exch10(S^2)                  32.05141069 [mEh]      20.11256385 [kcal/mol]      84.15096717 [kJ/mol]
      Exch11(S^2)                   1.40922407 [mEh]       0.88430146 [kcal/mol]       3.69991729 [kJ/mol]
      Exch12(S^2)                   2.71909324 [mEh]       1.70625677 [kcal/mol]       7.13897831 [kJ/mol]

    Induction                     -19.58856466 [mEh]     -12.29200990 [kcal/mol]     -51.42976942 [kJ/mol]
      Ind20,r                     -27.95197959 [mEh]     -17.54013200 [kcal/mol]     -73.38791229 [kJ/mol]
      Ind22                        -3.30214441 [mEh]      -2.07212690 [kcal/mol]      -8.66977896 [kJ/mol]
      Exch-Ind20,r                 15.64025332 [mEh]       9.81440713 [kcal/mol]      41.06347942 [kJ/mol]
      Exch-Ind22                    1.84768220 [mEh]       1.15943808 [kcal/mol]       4.85108894 [kJ/mol]
      delta HF,r (2)               -5.82237617 [mEh]      -3.65359621 [kcal/mol]     -15.28664654 [kJ/mol]

    Dispersion                    -12.00028470 [mEh]      -7.53029234 [kcal/mol]     -31.50674314 [kJ/mol]
      Disp20                      -13.57695436 [mEh]      -8.51966749 [kcal/mol]     -35.64628877 [kJ/mol]
      Disp21                        0.85793415 [mEh]       0.53836181 [kcal/mol]       2.25250580 [kJ/mol]
      Disp22 (SDQ)                 -0.01531495 [mEh]      -0.00961028 [kcal/mol]      -0.04020940 [kJ/mol]
      Disp22 (T)                   -2.16932073 [mEh]      -1.36126931 [kcal/mol]      -5.69555078 [kJ/mol]
      Est. Disp22 (T)              -2.48053059 [mEh]      -1.55655644 [kcal/mol]      -6.51263216 [kJ/mol]
      Exch-Disp20                   3.21458105 [mEh]       2.01718006 [kcal/mol]       8.43988139 [kJ/mol]

  Total HF                        -39.21069651 [mEh]     -24.60508354 [kcal/mol]    -102.94766952 [kJ/mol]
  Total SAPT0                     -49.57306983 [mEh]     -31.10757096 [kcal/mol]    -130.15407690 [kJ/mol]
  Total SAPT2                     -46.63349738 [mEh]     -29.26296140 [kcal/mol]    -122.43623051 [kJ/mol]
  Total SAPT2+                    -48.27140877 [mEh]     -30.29076632 [kcal/mol]    -126.73656627 [kJ/mol]

  Special recipe for scaled SAPT0 (see Manual):
    Electrostatics sSAPT0         -53.57232639 [mEh]     -33.61714234 [kcal/mol]    -140.65412357 [kJ/mol]
    Exchange sSAPT0                32.49573232 [mEh]      20.39137989 [kcal/mol]      85.31753346 [kJ/mol]
    Induction sSAPT0              -17.47459156 [mEh]     -10.96547175 [kcal/mol]     -45.87953382 [kJ/mol]
    Dispersion sSAPT0             -10.22682236 [mEh]      -6.41742792 [kcal/mol]     -26.85051841 [kJ/mol]
  Total sSAPT0                    -48.77800799 [mEh]     -30.60866213 [kcal/mol]    -128.06664234 [kJ/mol]
  --------------------------------------------------------------------------------------------------------

*** Psi4 exiting successfully. Buy a developer a beer!
