                               Psi4 1.9 release

  ==> Input File <==

--------------------------------------------------------------------------
MEMORY 60 GB

molecule dimer {
-1 1
Cl     2.543699     0.000000     0.000000
--
0 1
O      0.000000    -0.107289     1.572847
H     -0.369135     0.578119     1.010976
H      0.913486    -0.160341     1.215831
O      0.000000     0.107289    -1.572847
H     -0.369135    -0.578119    -1.010976
H      0.913486     0.160341    -1.215831

units ang
no_reorient
no_com
symmetry c1
}

set {
basis        aug-cc-pVTZ
scf_type     df
}

energy("sapt2+")
--------------------------------------------------------------------------

  //              Dimer HF             //
    Molecular point group: c1
  Charge       = -1
  Multiplicity = 1
  Basis Set: AUG-CC-PVTZ
    Blend: AUG-CC-PVTZ
  Basis Set: (AUG-CC-PVTZ AUX)
    Blend: AUG-CC-PVTZ-JKFIT
  @DF-RHF Final Energy:  -611.72417452809043
    Total Energy =                       -611.7241745280903160
 Dipole X            :        -86.9901040           83.7745544           -3.2155497
 Dipole Y            :          0.0000000            0.0000000            0.0000000
 Dipole Z            :         -0.0000000            0.0000000           -0.0000000
 Magnitude           :                                                    3.2155497
  //            Monomer A HF           //
    Molecular point group: c1
  Multiplicity = 1
  Basis Set: AUG-CC-PVTZ
    Blend: AUG-CC-PVTZ
  Basis Set: (AUG-CC-PVTZ AUX)
    Blend: AUG-CC-PVTZ-JKFIT
  @DF-RHF Final Energy:  -459.57353490745680
    Total Energy =                       -459.5735349074567466
  //            Monomer B HF           //
    Molecular point group: c1

    Geometry (in Angstrom), charge = 0, multiplicity = 1:

       Center              X                  Y                   Z               Mass
    ------------   -----------------  -----------------  -----------------  -----------------
      Gh(CL)          2.543699000000     0.000000000000     0.000000000000    34.968852682000
         O            0.000000000000    -0.107289000000     1.572847000000    15.994914619570
         H           -0.369135000000     0.578119000000     1.010976000000     1.007825032230
         H            0.913486000000    -0.160341000000     1.215831000000     1.007825032230
         O            0.000000000000     0.107289000000    -1.572847000000    15.994914619570
         H           -0.369135000000    -0.578119000000    -1.010976000000     1.007825032230
         H            0.913486000000     0.160341000000    -1.215831000000     1.007825032230

  Charge       = 0
  Multiplicity = 1
  Basis Set: AUG-CC-PVTZ
    Blend: AUG-CC-PVTZ
  Basis Set: (AUG-CC-PVTZ AUX)
    Blend: AUG-CC-PVTZ-JKFIT

    Orbital Energies [Eh]
    ---------------------

    Doubly Occupied:

       1A    -20.582431     2A    -20.582428     3A     -1.365354
       4A     -1.358234     5A     -0.717572     6A     -0.711463
       7A     -0.611613     8A     -0.594351     9A     -0.527555
      10A     -0.516191

  @DF-RHF Final Energy:  -152.11631452873286

   => Energetics <=

    Nuclear Repulsion Energy =             35.8040005219439550
    One-Electron Energy =                -280.7062438968719107
    Two-Electron Energy =                  92.7859288461950911
    Total Energy =                       -152.1163145287328575
 Dipole X            :         -1.3928126            2.0573486            0.6645360
 Dipole Y            :          0.0000000            0.0000000            0.0000000
 Dipole Z            :         -0.0000000            0.0000000           -0.0000000
 Magnitude           :                                                    0.6645360

    SAPT Results
  --------------------------------------------------------------------------------------------------------
    Electrostatics                -70.80658611 [mEh]     -44.43180359 [kcal/mol]    -185.90266623 [kJ/mol]
      Elst10,r                    -70.11719780 [mEh]     -43.99920589 [kcal/mol]    -184.09267745 [kJ/mol]
      Elst12,r                     -0.68938832 [mEh]      -0.43259770 [kcal/mol]      -1.80998878 [kJ/mol]

    Exchange                       69.53786491 [mEh]      43.63566902 [kcal/mol]     182.57163917 [kJ/mol]
      Exch10                       62.82359264 [mEh]      39.42239956 [kcal/mol]     164.94331975 [kJ/mol]
      Exch10(S^2)                  61.42145090 [mEh]      38.54254234 [kcal/mol]     161.26199713 [kJ/mol]
      Exch11(S^2)                   2.33774584 [mEh]       1.46695766 [kcal/mol]       6.13775087 [kJ/mol]
      Exch12(S^2)                   4.37652643 [mEh]       2.74631180 [kcal/mol]      11.49056855 [kJ/mol]

    Induction                     -29.22031795 [mEh]     -18.33602634 [kcal/mol]     -76.71793420 [kJ/mol]
      Ind20,r                     -47.73127348 [mEh]     -29.95182630 [kcal/mol]    -125.31844125 [kJ/mol]
      Ind22                        -5.93097052 [mEh]      -3.72174019 [kcal/mol]     -15.57176096 [kJ/mol]
      Exch-Ind20,r                 30.11599444 [mEh]      18.89807183 [kcal/mol]      79.06953252 [kJ/mol]
      Exch-Ind22                    3.74213932 [mEh]       2.34822788 [kcal/mol]       9.82498543 [kJ/mol]
      delta HF,r (2)               -9.41620771 [mEh]      -5.90875955 [kcal/mol]     -24.72224995 [kJ/mol]

    Dispersion                    -17.86109264 [mEh]     -11.20800484 [kcal/mol]     -46.89429226 [kJ/mol]
      Disp20                      -21.24342329 [mEh]     -13.33044937 [kcal/mol]     -55.77460017 [kJ/mol]
      Disp21                        1.55481708 [mEh]       0.97566245 [kcal/mol]       4.08217167 [kJ/mol]
      Disp22 (SDQ)                  0.05579336 [mEh]       0.03501086 [kcal/mol]       0.14648545 [kJ/mol]
      Disp22 (T)                   -3.28254170 [mEh]      -2.05982601 [kcal/mol]      -8.61831204 [kJ/mol]
      Est. Disp22 (T)              -3.72044665 [mEh]      -2.33461552 [kcal/mol]      -9.76803134 [kJ/mol]
      Exch-Disp20                   5.49216687 [mEh]       3.44638674 [kcal/mol]      14.41968213 [kJ/mol]

  Total HF                        -34.32509190 [mEh]     -21.53932036 [kcal/mol]     -90.12051637 [kJ/mol]
  Total SAPT0                     -50.07634832 [mEh]     -31.42338299 [kcal/mol]    -131.47543441 [kJ/mol]
  Total SAPT2                     -46.24029557 [mEh]     -29.01622354 [kcal/mol]    -121.40387930 [kJ/mol]
  Total SAPT2+                    -48.35013178 [mEh]     -30.34016575 [kcal/mol]    -126.94325351 [kJ/mol]

  Special recipe for scaled SAPT0 (see Manual):
    Electrostatics sSAPT0         -70.11719780 [mEh]     -43.99920589 [kcal/mol]    -184.09267745 [kJ/mol]
    Exchange sSAPT0                62.82359264 [mEh]      39.42239956 [kcal/mol]     164.94331975 [kJ/mol]
    Induction sSAPT0              -24.92156301 [mEh]     -15.63851689 [kcal/mol]     -65.43155468 [kJ/mol]
    Dispersion sSAPT0             -15.36647573 [mEh]      -9.64260910 [kcal/mol]     -40.34467647 [kJ/mol]
  Total sSAPT0                    -47.58164390 [mEh]     -29.85793233 [kcal/mol]    -124.92558885 [kJ/mol]
  --------------------------------------------------------------------------------------------------------

*** Psi4 exiting successfully. Buy a developer a beer!
