                               Psi4 1.9 release

  ==> Input File <==

--------------------------------------------------------------------------
MEMORY 60 GB

molecule dimer {
-1 1
Br     3.682673     0.000000     0.000000
--
0 1
O      0.000000    -0.112811     1.567716
H     -0.349529     0.578740     1.000386
H      0.921124    -0.169041     1.237825
O      0.000000     0.112811    -1.567716
H     -0.349529    -0.578740    -1.000386
H      0.921124     0.169041    -1.237825

units ang
no_reorient
no_com
symmetry c1
}

set {
basis        aug-cc-pVTZ
scf_type     df
}

energy("sapt2+")
--------------------------------------------------------------------------

  //              Dimer HF             //
    Molecular point group: c1
  Charge       = -1
  Multiplicity = 1
  Basis Set: AUG-CC-PVTZ
    Blend: AUG-CC-PVTZ
  Basis Set: (AUG-CC-PVTZ AUX)
    Blend: AUG-CC-PVTZ-JKFIT
  @DF-RHF Final Energy: -2724.67913505511842
    Total Energy =                      -2724.6791350551184223
 Dipole X            :       -251.3519611          245.7338343           -5.6181268
 Dipole Y            :         -0.0000000            0.0000000           -0.0000000
 Dipole Z            :         -0.0000000            0.0000000           -0.0000000
 Magnitude           :                                                    5.6181268
  //            Monomer A HF           //
    Molecular point group: c1
  Multiplicity = 1
  Basis Set: AUG-CC-PVTZ
    Blend: AUG-CC-PVTZ
  Basis Set: (AUG-CC-PVTZ AUX)
    Blend: AUG-CC-PVTZ-JKFIT
  @DF-RHF Final Energy: -2572.53368160379614
    Total Energy =                      -2572.5336816037961398
  //            Monomer B HF           //
    Molecular point group: c1

    Geometry (in Angstrom), charge = 0, multiplicity = 1:

       Center              X                  Y                   Z               Mass
    ------------   -----------------  -----------------  -----------------  -----------------
      Gh(BR)          3.682673000000     0.000000000000     0.000000000000    78.918337600000
         O            0.000000000000    -0.112811000000     1.567716000000    15.994914619570
         H           -0.349529000000     0.578740000000     1.000386000000     1.007825032230
         H            0.921124000000    -0.169041000000     1.237825000000     1.007825032230
         O            0.000000000000     0.112811000000    -1.567716000000    15.994914619570
         H           -0.349529000000    -0.578740000000    -1.000386000000     1.007825032230
         H            0.921124000000     0.169041000000    -1.237825000000     1.007825032230

  Charge       = 0
  Multiplicity = 1
  Basis Set: AUG-CC-PVTZ
    Blend: AUG-CC-PVTZ
  Basis Set: (AUG-CC-PVTZ AUX)
    Blend: AUG-CC-PVTZ-JKFIT

    Orbital Energies [Eh]
    ---------------------

    Doubly Occupied:

       1A    -20.581867     2A    -20.581863     3A     -1.365490
       4A     -1.358289     5A     -0.717894     6A     -0.711726
       7A     -0.611030     8A     -0.594475     9A     -0.527589
      10A     -0.515628

  @DF-RHF Final Energy:  -152.11684995189719

   => Energetics <=

    Nuclear Repulsion Energy =             35.8545097880056929
    One-Electron Energy =                -280.8110165751283489
    Two-Electron Energy =                  92.8396568352254690
    Total Energy =                       -152.1168499518971942
 Dipole X            :         -1.4582243            2.1603160            0.7020918
 Dipole Y            :         -0.0000000            0.0000000           -0.0000000
 Dipole Z            :         -0.0000000            0.0000000           -0.0000000
 Magnitude           :                                                    0.7020918

    SAPT Results
  --------------------------------------------------------------------------------------------------------
    Electrostatics                -27.03734277 [mEh]     -16.96618874 [kcal/mol]     -70.98653367 [kJ/mol]
      Elst10,r                    -27.91168836 [mEh]     -17.51484887 [kcal/mol]     -73.28212769 [kJ/mol]
      Elst12,r                      0.87434559 [mEh]       0.54866014 [kcal/mol]       2.29559402 [kJ/mol]

    Exchange                        6.53021199 [mEh]       4.09776989 [kcal/mol]      17.14506922 [kJ/mol]
      Exch10                        5.65355942 [mEh]       3.54766210 [kcal/mol]      14.84341822 [kJ/mol]
      Exch10(S^2)                   5.63156056 [mEh]       3.53385761 [kcal/mol]      14.78566022 [kJ/mol]
      Exch11(S^2)                   0.30153824 [mEh]       0.18921811 [kcal/mol]       0.79168855 [kJ/mol]
      Exch12(S^2)                   0.57511433 [mEh]       0.36088969 [kcal/mol]       1.50996245 [kJ/mol]

    Induction                      -6.84757286 [mEh]      -4.29691684 [kcal/mol]     -17.97830008 [kJ/mol]
      Ind20,r                      -8.53831095 [mEh]      -5.35787101 [kcal/mol]     -22.41733231 [kJ/mol]
      Ind22                        -0.85740242 [mEh]      -0.53802814 [kcal/mol]      -2.25110974 [kJ/mol]
      Exch-Ind20,r                  3.53720536 [mEh]       2.21962988 [kcal/mol]       9.28693140 [kJ/mol]
      Exch-Ind22                    0.35520005 [mEh]       0.22289139 [kcal/mol]       0.93257759 [kJ/mol]
      delta HF,r (2)               -1.34426490 [mEh]      -0.84353896 [kcal/mol]      -3.52936702 [kJ/mol]

    Dispersion                     -4.25803566 [mEh]      -2.67195772 [kcal/mol]     -11.17947109 [kJ/mol]
      Disp20                       -4.35510129 [mEh]      -2.73286732 [kcal/mol]     -11.43431687 [kJ/mol]
      Disp21                        0.26333466 [mEh]       0.16524499 [kcal/mol]       0.69138505 [kJ/mol]
      Disp22 (SDQ)                 -0.04842244 [mEh]      -0.03038554 [kcal/mol]      -0.12713309 [kJ/mol]
      Disp22 (T)                   -0.73471527 [mEh]      -0.46104079 [kcal/mol]      -1.92899468 [kJ/mol]
      Est. Disp22 (T)              -0.85560591 [mEh]      -0.53690081 [kcal/mol]      -2.24639300 [kJ/mol]
      Exch-Disp20                   0.73775931 [mEh]       0.46295096 [kcal/mol]       1.93698681 [kJ/mol]

  Total HF                        -28.60349943 [mEh]     -17.94896687 [kcal/mol]     -75.09847739 [kJ/mol]
  Total SAPT0                     -32.22084140 [mEh]     -20.21888323 [kcal/mol]     -84.59580745 [kJ/mol]
  Total SAPT2                     -30.97204562 [mEh]     -19.43525205 [kcal/mol]     -81.31709458 [kJ/mol]
  Total SAPT2+                    -31.61273931 [mEh]     -19.83729341 [kcal/mol]     -82.99923561 [kJ/mol]

  Special recipe for scaled SAPT0 (see Manual):
    Electrostatics sSAPT0         -27.91168836 [mEh]     -17.51484887 [kcal/mol]     -73.28212769 [kJ/mol]
    Exchange sSAPT0                 5.65355942 [mEh]       3.54766210 [kcal/mol]      14.84341822 [kJ/mol]
    Induction sSAPT0               -6.30375564 [mEh]      -3.95566639 [kcal/mol]     -16.55050815 [kJ/mol]
    Dispersion sSAPT0              -3.60866232 [mEh]      -2.26446979 [kcal/mol]      -9.47454161 [kJ/mol]
  Total sSAPT0                    -32.17054689 [mEh]     -20.18732295 [kcal/mol]     -84.46375923 [kJ/mol]
  --------------------------------------------------------------------------------------------------------

*** Psi4 exiting successfully. Buy a developer a beer!
