                               Psi4 1.9 release

  ==> Input File <==

--------------------------------------------------------------------------
MEMORY 60 GB

molecule dimer {
-1 1
Br     2.691184     0.000000     0.000000
--
0 1
O      0.000000    -0.112811     1.567716
H     -0.349529     0.578740     1.000386
H      0.921124    -0.169041     1.237825
O      0.000000     0.112811    -1.567716
H     -0.349529    -0.578740    -1.000386
H      0.921124     0.169041    -1.237825

units ang
no_reorient
no_com
symmetry c1
}

set {
basis        aug-cc-pVTZ
scf_type     df
}

energy("sapt2+")
--------------------------------------------------------------------------

  //              Dimer HF             //
    Molecular point group: c1
  Charge       = -1
  Multiplicity = 1
  Basis Set: AUG-CC-PVTZ
    Blend: AUG-CC-PVTZ
  Basis Set: (AUG-CC-PVTZ AUX)
    Blend: AUG-CC-PVTZ-JKFIT
  @DF-RHF Final Energy: -2724.67631222428554
    Total Energy =                      -2724.6763122242855388
 Dipole X            :       -183.6410852          180.1563410           -3.4847443
 Dipole Y            :         -0.0000000            0.0000000           -0.0000000
 Dipole Z            :          0.0000000            0.0000000            0.0000000
 Magnitude           :                                                    3.4847443
  //            Monomer A HF           //
    Molecular point group: c1
  Multiplicity = 1
  Basis Set: AUG-CC-PVTZ
    Blend: AUG-CC-PVTZ
  Basis Set: (AUG-CC-PVTZ AUX)
    Blend: AUG-CC-PVTZ-JKFIT
  @DF-RHF Final Energy: -2572.53370272105167
    Total Energy =                      -2572.5337027210516680
  //            Monomer B HF           //
    Molecular point group: c1

    Geometry (in Angstrom), charge = 0, multiplicity = 1:

       Center              X                  Y                   Z               Mass
    ------------   -----------------  -----------------  -----------------  -----------------
      Gh(BR)          2.691184000000     0.000000000000     0.000000000000    78.918337600000
         O            0.000000000000    -0.112811000000     1.567716000000    15.994914619570
         H           -0.349529000000     0.578740000000     1.000386000000     1.007825032230
         H            0.921124000000    -0.169041000000     1.237825000000     1.007825032230
         O            0.000000000000     0.112811000000    -1.567716000000    15.994914619570
         H           -0.349529000000    -0.578740000000    -1.000386000000     1.007825032230
         H            0.921124000000     0.169041000000    -1.237825000000     1.007825032230

  Charge       = 0
  Multiplicity = 1
  Basis Set: AUG-CC-PVTZ
    Blend: AUG-CC-PVTZ
  Basis Set: (AUG-CC-PVTZ AUX)
    Blend: AUG-CC-PVTZ-JKFIT

    Orbital Energies [Eh]
    ---------------------

    Doubly Occupied:

       1A    -20.581841     2A    -20.581837     3A     -1.365467
       4A     -1.358266     5A     -0.717871     6A     -0.711703
       7A     -0.611010     8A     -0.594455     9A     -0.527578
      10A     -0.515617

  @DF-RHF Final Energy:  -152.11688184564463

   => Energetics <=

    Nuclear Repulsion Energy =             35.8545097880056929
    One-Electron Energy =                -280.8114963895773712
    Two-Electron Energy =                  92.8401047559270438
    Total Energy =                       -152.1168818456446274
 Dipole X            :         -1.4580533            2.1603160            0.7022627
 Dipole Y            :         -0.0000000            0.0000000           -0.0000000
 Dipole Z            :          0.0000000            0.0000000            0.0000000
 Magnitude           :                                                    0.7022627

    SAPT Results
  --------------------------------------------------------------------------------------------------------
    Electrostatics                -65.07733161 [mEh]     -40.83664211 [kcal/mol]    -170.86051061 [kJ/mol]
      Elst10,r                    -64.16293020 [mEh]     -40.26284657 [kcal/mol]    -168.45975004 [kJ/mol]
      Elst12,r                     -0.91440141 [mEh]      -0.57379555 [kcal/mol]      -2.40076057 [kJ/mol]

    Exchange                       69.24289442 [mEh]      43.45057224 [kcal/mol]     181.79719424 [kJ/mol]
      Exch10                       63.05445698 [mEh]      39.56726912 [kcal/mol]     165.54945399 [kJ/mol]
      Exch10(S^2)                  61.46894817 [mEh]      38.57234732 [kcal/mol]     161.38670118 [kJ/mol]
      Exch11(S^2)                   2.32308408 [mEh]       1.45775727 [kcal/mol]       6.09925640 [kJ/mol]
      Exch12(S^2)                   3.86535336 [mEh]       2.42554585 [kcal/mol]      10.14848385 [kJ/mol]

    Induction                     -26.69334354 [mEh]     -16.75032596 [kcal/mol]     -70.08336381 [kJ/mol]
      Ind20,r                     -53.08949162 [mEh]     -33.31415895 [kcal/mol]    -139.38644103 [kJ/mol]
      Ind22                        -6.95981589 [mEh]      -4.36735041 [kcal/mol]     -18.27299410 [kJ/mol]
      Exch-Ind20,r                 37.26780067 [mEh]      23.38589799 [kcal/mol]      97.84659718 [kJ/mol]
      Exch-Ind22                    4.88565672 [mEh]       3.06579587 [kcal/mol]      12.82728994 [kJ/mol]
      delta HF,r (2)               -8.79749342 [mEh]      -5.52051047 [kcal/mol]     -23.09781579 [kJ/mol]

    Dispersion                    -18.14138826 [mEh]     -11.38389300 [kcal/mol]     -47.63020830 [kJ/mol]
      Disp20                      -21.74420619 [mEh]     -13.64469538 [kcal/mol]     -57.08940548 [kJ/mol]
      Disp21                        1.67624337 [mEh]       1.05185860 [kcal/mol]       4.40097637 [kJ/mol]
      Disp22 (SDQ)                  0.03667766 [mEh]       0.02301558 [kcal/mol]       0.09629719 [kJ/mol]
      Disp22 (T)                   -3.30716925 [mEh]      -2.07528004 [kcal/mol]      -8.68297167 [kJ/mol]
      Est. Disp22 (T)              -3.74670383 [mEh]      -2.35109215 [kcal/mol]      -9.83696955 [kJ/mol]
      Exch-Disp20                   5.63660072 [mEh]       3.53702035 [kcal/mol]      14.79889316 [kJ/mol]

  Total HF                        -25.72765759 [mEh]     -16.14434888 [kcal/mol]     -67.54795569 [kJ/mol]
  Total SAPT0                     -41.83526305 [mEh]     -26.25202390 [kcal/mol]    -109.83846802 [kJ/mol]
  Total SAPT2                     -38.63538620 [mEh]     -24.24407086 [kcal/mol]    -101.43719249 [kJ/mol]
  Total SAPT2+                    -40.66916899 [mEh]     -25.52028883 [kcal/mol]    -106.77688848 [kJ/mol]

  Special recipe for scaled SAPT0 (see Manual):
    Electrostatics sSAPT0         -64.16293020 [mEh]     -40.26284657 [kcal/mol]    -168.45975004 [kJ/mol]
    Exchange sSAPT0                63.05445698 [mEh]      39.56726912 [kcal/mol]     165.54945399 [kJ/mol]
    Induction sSAPT0              -21.66034229 [mEh]     -13.59206999 [kcal/mol]     -56.86922084 [kJ/mol]
    Dispersion sSAPT0             -15.66009284 [mEh]      -9.82685662 [kcal/mol]     -41.11556808 [kJ/mol]
  Total sSAPT0                    -38.42890835 [mEh]     -24.11450405 [kcal/mol]    -100.89508496 [kJ/mol]
  --------------------------------------------------------------------------------------------------------

*** Psi4 exiting successfully. Buy a developer a beer!
