                               Psi4 1.9 release

  ==> Input File <==

--------------------------------------------------------------------------
MEMORY 60 GB

molecule dimer {
-1 1
Br     3.399390     0.000000     0.000000
--
0 1
O      0.000000    -0.112811     1.567716
H     -0.349529     0.578740     1.000386
H      0.921124    -0.169041     1.237825
O      0.000000     0.112811    -1.567716
H     -0.349529    -0.578740    -1.000386
H      0.921124     0.169041    -1.237825

units ang
no_reorient
no_com
symmetry c1
}

set {
basis        aug-cc-pVTZ
scf_type     df
}

energy("sapt2+")
--------------------------------------------------------------------------

  //              Dimer HF             //
    Molecular point group: c1
  Charge       = -1
  Multiplicity = 1
  Basis Set: AUG-CC-PVTZ
    Blend: AUG-CC-PVTZ
  Basis Set: (AUG-CC-PVTZ AUX)
    Blend: AUG-CC-PVTZ-JKFIT
  @DF-RHF Final Energy: -2724.68235909753867
    Total Energy =                      -2724.6823590975382103
 Dipole X            :       -232.0009771          226.9973793           -5.0035978
 Dipole Y            :          0.0000000            0.0000000            0.0000000
 Dipole Z            :          0.0000000            0.0000000            0.0000000
 Magnitude           :                                                    5.0035978
  //            Monomer A HF           //
    Molecular point group: c1
  Multiplicity = 1
  Basis Set: AUG-CC-PVTZ
    Blend: AUG-CC-PVTZ
  Basis Set: (AUG-CC-PVTZ AUX)
    Blend: AUG-CC-PVTZ-JKFIT
  @DF-RHF Final Energy: -2572.53368680003314
    Total Energy =                      -2572.5336868000331378
  //            Monomer B HF           //
    Molecular point group: c1

    Geometry (in Angstrom), charge = 0, multiplicity = 1:

       Center              X                  Y                   Z               Mass
    ------------   -----------------  -----------------  -----------------  -----------------
      Gh(BR)          3.399390000000     0.000000000000     0.000000000000    78.918337600000
         O            0.000000000000    -0.112811000000     1.567716000000    15.994914619570
         H           -0.349529000000     0.578740000000     1.000386000000     1.007825032230
         H            0.921124000000    -0.169041000000     1.237825000000     1.007825032230
         O            0.000000000000     0.112811000000    -1.567716000000    15.994914619570
         H           -0.349529000000    -0.578740000000    -1.000386000000     1.007825032230
         H            0.921124000000     0.169041000000    -1.237825000000     1.007825032230

  Charge       = 0
  Multiplicity = 1
  Basis Set: AUG-CC-PVTZ
    Blend: AUG-CC-PVTZ
  Basis Set: (AUG-CC-PVTZ AUX)
    Blend: AUG-CC-PVTZ-JKFIT

    Orbital Energies [Eh]
    ---------------------

    Doubly Occupied:

       1A    -20.581866     2A    -20.581862     3A     -1.365485
       4A     -1.358284     5A     -0.717889     6A     -0.711720
       7A     -0.611026     8A     -0.594472     9A     -0.527586
      10A     -0.515624

  @DF-RHF Final Energy:  -152.11685813423867

   => Energetics <=

    Nuclear Repulsion Energy =             35.8545097880056929
    One-Electron Energy =                -280.8111045586286423
    Two-Electron Energy =                  92.8397366363842877
    Total Energy =                       -152.1168581342386688
 Dipole X            :         -1.4582103            2.1603160            0.7021057
 Dipole Y            :          0.0000000            0.0000000            0.0000000
 Dipole Z            :          0.0000000            0.0000000            0.0000000
 Magnitude           :                                                    0.7021057

    SAPT Results
  --------------------------------------------------------------------------------------------------------
    Electrostatics                -33.30002519 [mEh]     -20.89608129 [kcal/mol]     -87.42920410 [kJ/mol]
      Elst10,r                    -34.06733155 [mEh]     -21.37757329 [kcal/mol]     -89.44376667 [kJ/mol]
      Elst12,r                      0.76730636 [mEh]       0.48149201 [kcal/mol]       2.01456256 [kJ/mol]

    Exchange                       12.90595234 [mEh]       8.09860736 [kcal/mol]      33.88457319 [kJ/mol]
      Exch10                       11.32440170 [mEh]       7.10616935 [kcal/mol]      29.73221257 [kJ/mol]
      Exch10(S^2)                  11.24768365 [mEh]       7.05802805 [kcal/mol]      29.53078936 [kJ/mol]
      Exch11(S^2)                   0.57604888 [mEh]       0.36147613 [kcal/mol]       1.51241612 [kJ/mol]
      Exch12(S^2)                   1.00550176 [mEh]       0.63096188 [kcal/mol]       2.63994450 [kJ/mol]

    Induction                      -9.77398370 [mEh]      -6.13326737 [kcal/mol]     -25.66159067 [kJ/mol]
      Ind20,r                     -13.41857309 [mEh]      -8.42028174 [kcal/mol]     -35.23045880 [kJ/mol]
      Ind22                        -1.41485427 [mEh]      -0.88783446 [kcal/mol]      -3.71469938 [kJ/mol]
      Exch-Ind20,r                  6.75364213 [mEh]       4.23797442 [kcal/mol]      17.73168498 [kJ/mol]
      Exch-Ind22                    0.71210399 [mEh]       0.44685200 [kcal/mol]       1.86962876 [kJ/mol]
      delta HF,r (2)               -2.40630246 [mEh]      -1.50997759 [kcal/mol]      -6.31774623 [kJ/mol]

    Dispersion                     -6.45712452 [mEh]      -4.05190681 [kcal/mol]     -16.95317809 [kJ/mol]
      Disp20                       -6.87392485 [mEh]      -4.31345297 [kcal/mol]     -18.04748721 [kJ/mol]
      Disp21                        0.42275144 [mEh]       0.26528054 [kcal/mol]       1.10993376 [kJ/mol]
      Disp22 (SDQ)                 -0.05249114 [mEh]      -0.03293869 [kcal/mol]      -0.13781548 [kJ/mol]
      Disp22 (T)                   -1.13071514 [mEh]      -0.70953446 [kcal/mol]      -2.96869218 [kJ/mol]
      Est. Disp22 (T)              -1.31151086 [mEh]      -0.82298549 [kcal/mol]      -3.44337130 [kJ/mol]
      Exch-Disp20                   1.35805089 [mEh]       0.85218980 [kcal/mol]       3.56556213 [kJ/mol]

  Total HF                        -31.81416327 [mEh]     -19.96368885 [kcal/mol]     -83.52807415 [kJ/mol]
  Total SAPT0                     -37.33003722 [mEh]     -23.42495201 [kcal/mol]     -98.00999922 [kJ/mol]
  Total SAPT2                     -35.68393051 [mEh]     -22.39200446 [kcal/mol]     -93.68814665 [kJ/mol]
  Total SAPT2+                    -36.62518108 [mEh]     -22.98264810 [kcal/mol]     -96.15939967 [kJ/mol]

  Special recipe for scaled SAPT0 (see Manual):
    Electrostatics sSAPT0         -34.06733155 [mEh]     -21.37757329 [kcal/mol]     -89.44376667 [kJ/mol]
    Exchange sSAPT0                11.32440170 [mEh]       7.10616935 [kcal/mol]      29.73221257 [kJ/mol]
    Induction sSAPT0               -8.93209322 [mEh]      -5.60497311 [kcal/mol]     -23.45120751 [kJ/mol]
    Dispersion sSAPT0              -5.48789506 [mEh]      -3.44370614 [kcal/mol]     -14.40846648 [kJ/mol]
  Total sSAPT0                    -37.16291812 [mEh]     -23.32008320 [kcal/mol]     -97.57122809 [kJ/mol]
  --------------------------------------------------------------------------------------------------------

*** Psi4 exiting successfully. Buy a developer a beer!
