                               Psi4 1.9 release

  ==> Input File <==

--------------------------------------------------------------------------
MEMORY 60 GB

molecule dimer {
-1 1
Br     2.832825     0.000000     0.000000
--
0 1
O      0.000000    -0.112811     1.567716
H     -0.349529     0.578740     1.000386
H      0.921124    -0.169041     1.237825
O      0.000000     0.112811    -1.567716
H     -0.349529    -0.578740    -1.000386
H      0.921124     0.169041    -1.237825

units ang
no_reorient
no_com
symmetry c1
}

set {
basis        aug-cc-pVTZ
scf_type     df
}

energy("sapt2+")
--------------------------------------------------------------------------

  //              Dimer HF             //
    Molecular point group: c1
  Charge       = -1
  Multiplicity = 1
  Basis Set: AUG-CC-PVTZ
    Blend: AUG-CC-PVTZ
  Basis Set: (AUG-CC-PVTZ AUX)
    Blend: AUG-CC-PVTZ-JKFIT
  @DF-RHF Final Energy: -2724.68101936824633
    Total Energy =                      -2724.6810193682458703
 Dipole X            :       -193.3070284          189.5245354           -3.7824930
 Dipole Y            :          0.0000000            0.0000000            0.0000000
 Dipole Z            :         -0.0000000            0.0000000           -0.0000000
 Magnitude           :                                                    3.7824930
  //            Monomer A HF           //
    Molecular point group: c1
  Multiplicity = 1
  Basis Set: AUG-CC-PVTZ
    Blend: AUG-CC-PVTZ
  Basis Set: (AUG-CC-PVTZ AUX)
    Blend: AUG-CC-PVTZ-JKFIT
  @DF-RHF Final Energy: -2572.53369880460968
    Total Energy =                      -2572.5336988046096849
  //            Monomer B HF           //
    Molecular point group: c1

    Geometry (in Angstrom), charge = 0, multiplicity = 1:

       Center              X                  Y                   Z               Mass
    ------------   -----------------  -----------------  -----------------  -----------------
      Gh(BR)          2.832825000000     0.000000000000     0.000000000000    78.918337600000
         O            0.000000000000    -0.112811000000     1.567716000000    15.994914619570
         H           -0.349529000000     0.578740000000     1.000386000000     1.007825032230
         H            0.921124000000    -0.169041000000     1.237825000000     1.007825032230
         O            0.000000000000     0.112811000000    -1.567716000000    15.994914619570
         H           -0.349529000000    -0.578740000000    -1.000386000000     1.007825032230
         H            0.921124000000     0.169041000000    -1.237825000000     1.007825032230

  Charge       = 0
  Multiplicity = 1
  Basis Set: AUG-CC-PVTZ
    Blend: AUG-CC-PVTZ
  Basis Set: (AUG-CC-PVTZ AUX)
    Blend: AUG-CC-PVTZ-JKFIT

    Orbital Energies [Eh]
    ---------------------

    Doubly Occupied:

       1A    -20.581849     2A    -20.581845     3A     -1.365471
       4A     -1.358271     5A     -0.717875     6A     -0.711706
       7A     -0.611014     8A     -0.594459     9A     -0.527580
      10A     -0.515619

  @DF-RHF Final Energy:  -152.11687584972373

   => Energetics <=

    Nuclear Repulsion Energy =             35.8545097880056929
    One-Electron Energy =                -280.8113915927768289
    Two-Electron Energy =                  92.8400059550474452
    Total Energy =                       -152.1168758497236979
 Dipole X            :         -1.4581040            2.1603160            0.7022120
 Dipole Y            :         -0.0000000            0.0000000           -0.0000000
 Dipole Z            :          0.0000000            0.0000000            0.0000000
 Magnitude           :                                                    0.7022120

    SAPT Results
  --------------------------------------------------------------------------------------------------------
    Electrostatics                -55.75253211 [mEh]     -34.98524208 [kcal/mol]    -146.37825288 [kJ/mol]
      Elst10,r                    -55.46662897 [mEh]     -34.80583516 [kcal/mol]    -145.62761430 [kJ/mol]
      Elst12,r                     -0.28590314 [mEh]      -0.17940693 [kcal/mol]      -0.75063858 [kJ/mol]

    Exchange                       49.77632190 [mEh]      31.23511356 [kcal/mol]     130.68771514 [kJ/mol]
      Exch10                       44.96826976 [mEh]      28.21801530 [kcal/mol]     118.06417600 [kJ/mol]
      Exch10(S^2)                  44.08923818 [mEh]      27.66641465 [kcal/mol]     115.75627890 [kJ/mol]
      Exch11(S^2)                   1.82806204 [mEh]       1.14712625 [kcal/mol]       4.79957623 [kJ/mol]
      Exch12(S^2)                   2.97999010 [mEh]       1.86997202 [kcal/mol]       7.82396292 [kJ/mol]

    Induction                     -21.55010765 [mEh]     -13.52289671 [kcal/mol]     -56.57979983 [kJ/mol]
      Ind20,r                     -38.91173275 [mEh]     -24.41748094 [kcal/mol]    -102.16274025 [kJ/mol]
      Ind22                        -4.85785982 [mEh]      -3.04835306 [kcal/mol]     -12.75430919 [kJ/mol]
      Exch-Ind20,r                 26.06558071 [mEh]      16.35639884 [kcal/mol]      68.43517273 [kJ/mol]
      Exch-Ind22                    3.25410688 [mEh]       2.04198289 [kcal/mol]       8.54365643 [kJ/mol]
      delta HF,r (2)               -7.10020267 [mEh]      -4.45544444 [kcal/mol]     -18.64157954 [kJ/mol]

    Dispersion                    -14.77904230 [mEh]      -9.27398906 [kcal/mol]     -38.80237022 [kJ/mol]
      Disp20                      -17.28747513 [mEh]     -10.84805442 [kcal/mol]     -45.38825970 [kJ/mol]
      Disp21                        1.25475370 [mEh]       0.78736983 [kcal/mol]       3.29435538 [kJ/mol]
      Disp22 (SDQ)                 -0.00094086 [mEh]      -0.00059040 [kcal/mol]      -0.00247022 [kJ/mol]
      Disp22 (T)                   -2.67220086 [mEh]      -1.67683135 [kcal/mol]      -7.01586239 [kJ/mol]
      Est. Disp22 (T)              -3.04685032 [mEh]      -1.91192744 [kcal/mol]      -7.99950441 [kJ/mol]
      Exch-Disp20                   4.30147031 [mEh]       2.69921337 [kcal/mol]      11.29350873 [kJ/mol]

  Total HF                        -30.44471391 [mEh]     -19.10434641 [kcal/mol]     -79.93258537 [kJ/mol]
  Total SAPT0                     -43.43071874 [mEh]     -27.25318746 [kcal/mol]    -114.02733634 [kJ/mol]
  Total SAPT2                     -40.51232268 [mEh]     -25.42186629 [kcal/mol]    -106.36508854 [kJ/mol]
  Total SAPT2+                    -42.30536015 [mEh]     -26.54701429 [kcal/mol]    -111.07270778 [kJ/mol]

  Special recipe for scaled SAPT0 (see Manual):
    Electrostatics sSAPT0         -55.46662897 [mEh]     -34.80583516 [kcal/mol]    -145.62761430 [kJ/mol]
    Exchange sSAPT0                44.96826976 [mEh]      28.21801530 [kcal/mol]     118.06417600 [kJ/mol]
    Induction sSAPT0              -18.35601266 [mEh]     -11.51857184 [kcal/mol]     -48.19370459 [kJ/mol]
    Dispersion sSAPT0             -12.72355876 [mEh]      -7.98415366 [kcal/mol]     -33.40569892 [kJ/mol]
  Total sSAPT0                    -41.57793062 [mEh]     -26.09054537 [kcal/mol]    -109.16284181 [kJ/mol]
  --------------------------------------------------------------------------------------------------------

*** Psi4 exiting successfully. Buy a developer a beer!
