                               Psi4 1.9 release

  ==> Input File <==

--------------------------------------------------------------------------
MEMORY 60 GB

molecule dimer {
-1 1
Br     4.249238     0.000000     0.000000
--
0 1
O      0.000000    -0.112811     1.567716
H     -0.349529     0.578740     1.000386
H      0.921124    -0.169041     1.237825
O      0.000000     0.112811    -1.567716
H     -0.349529    -0.578740    -1.000386
H      0.921124     0.169041    -1.237825

units ang
no_reorient
no_com
symmetry c1
}

set {
basis        aug-cc-pVTZ
scf_type     df
}

energy("sapt2+")
--------------------------------------------------------------------------

  //              Dimer HF             //
    Molecular point group: c1
  Charge       = -1
  Multiplicity = 1
  Basis Set: AUG-CC-PVTZ
    Blend: AUG-CC-PVTZ
  Basis Set: (AUG-CC-PVTZ AUX)
    Blend: AUG-CC-PVTZ-JKFIT
  @DF-RHF Final Energy: -2724.67224174447165
    Total Energy =                      -2724.6722417444716484
 Dipole X            :       -290.0406432          283.2066782           -6.8339650
 Dipole Y            :          0.0000000            0.0000000            0.0000000
 Dipole Z            :         -0.0000000            0.0000000           -0.0000000
 Magnitude           :                                                    6.8339650
  //            Monomer A HF           //
    Molecular point group: c1
  Multiplicity = 1
  Basis Set: AUG-CC-PVTZ
    Blend: AUG-CC-PVTZ
  Basis Set: (AUG-CC-PVTZ AUX)
    Blend: AUG-CC-PVTZ-JKFIT
  @DF-RHF Final Energy: -2572.53367478122800
    Total Energy =                      -2572.5336747812280009
  //            Monomer B HF           //
    Molecular point group: c1

    Geometry (in Angstrom), charge = 0, multiplicity = 1:

       Center              X                  Y                   Z               Mass
    ------------   -----------------  -----------------  -----------------  -----------------
      Gh(BR)          4.249238000000     0.000000000000     0.000000000000    78.918337600000
         O            0.000000000000    -0.112811000000     1.567716000000    15.994914619570
         H           -0.349529000000     0.578740000000     1.000386000000     1.007825032230
         H            0.921124000000    -0.169041000000     1.237825000000     1.007825032230
         O            0.000000000000     0.112811000000    -1.567716000000    15.994914619570
         H           -0.349529000000    -0.578740000000    -1.000386000000     1.007825032230
         H            0.921124000000     0.169041000000    -1.237825000000     1.007825032230

  Charge       = 0
  Multiplicity = 1
  Basis Set: AUG-CC-PVTZ
    Blend: AUG-CC-PVTZ
  Basis Set: (AUG-CC-PVTZ AUX)
    Blend: AUG-CC-PVTZ-JKFIT

    Orbital Energies [Eh]
    ---------------------

    Doubly Occupied:

       1A    -20.581866     2A    -20.581862     3A     -1.365498
       4A     -1.358297     5A     -0.717902     6A     -0.711734
       7A     -0.611034     8A     -0.594478     9A     -0.527596
      10A     -0.515635

  @DF-RHF Final Energy:  -152.11684114157458

   => Energetics <=

    Nuclear Repulsion Energy =             35.8545097880056929
    One-Electron Energy =                -280.8108989228827568
    Two-Electron Energy =                  92.8395479933025030
    Total Energy =                       -152.1168411415745823
 Dipole X            :         -1.4582363            2.1603160            0.7020797
 Dipole Y            :          0.0000000            0.0000000            0.0000000
 Dipole Z            :         -0.0000000            0.0000000           -0.0000000
 Magnitude           :                                                    0.7020797

    SAPT Results
  --------------------------------------------------------------------------------------------------------
    Electrostatics                -19.02332013 [mEh]     -11.93731360 [kcal/mol]     -49.94572011 [kJ/mol]
      Elst10,r                    -19.85394870 [mEh]     -12.45854090 [kcal/mol]     -52.12653512 [kJ/mol]
      Elst12,r                      0.83062857 [mEh]       0.52122730 [kcal/mol]       2.18081501 [kJ/mol]

    Exchange                        1.68241842 [mEh]       1.05573350 [kcal/mol]       4.41718895 [kJ/mol]
      Exch10                        1.41940769 [mEh]       0.89069177 [kcal/mol]       3.72665438 [kJ/mol]
      Exch10(S^2)                   1.41765381 [mEh]       0.88959120 [kcal/mol]       3.72204958 [kJ/mol]
      Exch11(S^2)                   0.07750872 [mEh]       0.04863746 [kcal/mol]       0.20349913 [kJ/mol]
      Exch12(S^2)                   0.18550201 [mEh]       0.11640427 [kcal/mol]       0.48703545 [kJ/mol]

    Induction                      -3.56517438 [mEh]      -2.23718070 [kcal/mol]      -9.36036405 [kJ/mol]
      Ind20,r                      -3.85598836 [mEh]      -2.41966923 [kcal/mol]     -10.12389604 [kJ/mol]
      Ind22                        -0.36740003 [mEh]      -0.23054700 [kcal/mol]      -0.96460864 [kJ/mol]
      Exch-Ind20,r                  0.98138059 [mEh]       0.61582562 [kcal/mol]       2.57661438 [kJ/mol]
      Exch-Ind22                    0.09350631 [mEh]       0.05867610 [kcal/mol]       0.24550079 [kJ/mol]
      delta HF,r (2)               -0.41667289 [mEh]      -0.26146619 [kcal/mol]      -1.09397453 [kJ/mol]

    Dispersion                     -1.86857846 [mEh]      -1.17255069 [kcal/mol]      -4.90595208 [kJ/mol]
      Disp20                       -1.79863736 [mEh]      -1.12866198 [kcal/mol]      -4.72232174 [kJ/mol]
      Disp21                        0.11991172 [mEh]       0.07524574 [kcal/mol]       0.31482818 [kJ/mol]
      Disp22 (SDQ)                 -0.02908279 [mEh]      -0.01824973 [kcal/mol]      -0.07635686 [kJ/mol]
      Disp22 (T)                   -0.31665921 [mEh]      -0.19870665 [kcal/mol]      -0.83138864 [kJ/mol]
      Est. Disp22 (T)              -0.36963427 [mEh]      -0.23194900 [kcal/mol]      -0.97047463 [kJ/mol]
      Exch-Disp20                   0.20886423 [mEh]       0.13106428 [kcal/mol]       0.54837297 [kJ/mol]

  Total HF                        -21.72582167 [mEh]     -13.63315892 [kcal/mol]     -57.04113693 [kJ/mol]
  Total SAPT0                     -23.31559480 [mEh]     -14.63075662 [kcal/mol]     -61.21508571 [kJ/mol]
  Total SAPT2                     -22.49584921 [mEh]     -14.11635850 [kcal/mol]     -59.06284397 [kJ/mol]
  Total SAPT2+                    -22.77465455 [mEh]     -14.29131149 [kcal/mol]     -59.79484728 [kJ/mol]

  Special recipe for scaled SAPT0 (see Manual):
    Electrostatics sSAPT0         -19.85394870 [mEh]     -12.45854090 [kcal/mol]     -52.12653512 [kJ/mol]
    Exchange sSAPT0                 1.41940769 [mEh]       0.89069177 [kcal/mol]       3.72665438 [kJ/mol]
    Induction sSAPT0               -3.28763376 [mEh]      -2.06302133 [kcal/mol]      -8.63168124 [kJ/mol]
    Dispersion sSAPT0              -1.58899697 [mEh]      -0.99711065 [kcal/mol]      -4.17191096 [kJ/mol]
  Total sSAPT0                    -23.31117173 [mEh]     -14.62798110 [kcal/mol]     -61.20347294 [kJ/mol]
  --------------------------------------------------------------------------------------------------------

*** Psi4 exiting successfully. Buy a developer a beer!
