                               Psi4 1.9 release

  ==> Input File <==

--------------------------------------------------------------------------
MEMORY 60 GB

molecule dimer {
-1 1
Br     3.116108     0.000000     0.000000
--
0 1
O      0.000000    -0.112811     1.567716
H     -0.349529     0.578740     1.000386
H      0.921124    -0.169041     1.237825
O      0.000000     0.112811    -1.567716
H     -0.349529    -0.578740    -1.000386
H      0.921124     0.169041    -1.237825

units ang
no_reorient
no_com
symmetry c1
}

set {
basis        aug-cc-pVTZ
scf_type     df
}

energy("sapt2+")
--------------------------------------------------------------------------

  //              Dimer HF             //
    Molecular point group: c1
  Charge       = -1
  Multiplicity = 1
  Basis Set: AUG-CC-PVTZ
    Blend: AUG-CC-PVTZ
  Basis Set: (AUG-CC-PVTZ AUX)
    Blend: AUG-CC-PVTZ-JKFIT
  @DF-RHF Final Energy: -2724.68392533505858
    Total Energy =                      -2724.6839253350590297
 Dipole X            :       -212.6505684          208.2609904           -4.3895780
 Dipole Y            :         -0.0000000            0.0000000           -0.0000000
 Dipole Z            :          0.0000000            0.0000000            0.0000000
 Magnitude           :                                                    4.3895780
  //            Monomer A HF           //
    Molecular point group: c1
  Multiplicity = 1
  Basis Set: AUG-CC-PVTZ
    Blend: AUG-CC-PVTZ
  Basis Set: (AUG-CC-PVTZ AUX)
    Blend: AUG-CC-PVTZ-JKFIT
  @DF-RHF Final Energy: -2572.53369230317548
    Total Energy =                      -2572.5336923031754850
  //            Monomer B HF           //
    Molecular point group: c1

    Geometry (in Angstrom), charge = 0, multiplicity = 1:

       Center              X                  Y                   Z               Mass
    ------------   -----------------  -----------------  -----------------  -----------------
      Gh(BR)          3.116108000000     0.000000000000     0.000000000000    78.918337600000
         O            0.000000000000    -0.112811000000     1.567716000000    15.994914619570
         H           -0.349529000000     0.578740000000     1.000386000000     1.007825032230
         H            0.921124000000    -0.169041000000     1.237825000000     1.007825032230
         O            0.000000000000     0.112811000000    -1.567716000000    15.994914619570
         H           -0.349529000000    -0.578740000000    -1.000386000000     1.007825032230
         H            0.921124000000     0.169041000000    -1.237825000000     1.007825032230

  Charge       = 0
  Multiplicity = 1
  Basis Set: AUG-CC-PVTZ
    Blend: AUG-CC-PVTZ
  Basis Set: (AUG-CC-PVTZ AUX)
    Blend: AUG-CC-PVTZ-JKFIT

    Orbital Energies [Eh]
    ---------------------

    Doubly Occupied:

       1A    -20.581861     2A    -20.581857     3A     -1.365479
       4A     -1.358278     5A     -0.717882     6A     -0.711714
       7A     -0.611021     8A     -0.594467     9A     -0.527584
      10A     -0.515622

  @DF-RHF Final Energy:  -152.11686697183126

   => Energetics <=

    Nuclear Repulsion Energy =             35.8545097880056929
    One-Electron Energy =                -280.8112222074816486
    Two-Electron Energy =                  92.8398454476447057
    Total Energy =                       -152.1168669718312572
 Dipole X            :         -1.4581777            2.1603160            0.7021383
 Dipole Y            :          0.0000000            0.0000000            0.0000000
 Dipole Z            :          0.0000000            0.0000000            0.0000000
 Magnitude           :                                                    0.7021383

    SAPT Results
  --------------------------------------------------------------------------------------------------------
    Electrostatics                -42.27095806 [mEh]     -26.52542665 [kcal/mol]    -110.98238510 [kJ/mol]
      Elst10,r                    -42.71957077 [mEh]     -26.80693538 [kcal/mol]    -112.16021761 [kJ/mol]
      Elst12,r                      0.44861271 [mEh]       0.28150873 [kcal/mol]       1.17783251 [kJ/mol]

    Exchange                       25.44537957 [mEh]      15.96721674 [kcal/mol]      66.80683486 [kJ/mol]
      Exch10                       22.64502659 [mEh]      14.20996872 [kcal/mol]      59.45450912 [kJ/mol]
      Exch10(S^2)                  22.38199985 [mEh]      14.04491695 [kcal/mol]      58.76393252 [kJ/mol]
      Exch11(S^2)                   1.05809913 [mEh]       0.66396723 [kcal/mol]       2.77803889 [kJ/mol]
      Exch12(S^2)                   1.74225385 [mEh]       1.09328080 [kcal/mol]       4.57428685 [kJ/mol]

    Induction                     -14.31805432 [mEh]      -8.98471473 [kcal/mol]     -37.59204644 [kJ/mol]
      Ind20,r                     -22.13095420 [mEh]     -13.88738343 [kcal/mol]     -58.10481225 [kJ/mol]
      Ind22                        -2.51217257 [mEh]      -1.57641209 [kcal/mol]      -6.59570817 [kJ/mol]
      Exch-Ind20,r                 13.08767598 [mEh]       8.21264066 [kcal/mol]      34.36168854 [kJ/mol]
      Exch-Ind22                    1.48563412 [mEh]       0.93224948 [kcal/mol]       3.90053183 [kJ/mol]
      delta HF,r (2)               -4.24823764 [mEh]      -2.66580937 [kcal/mol]     -11.15374639 [kJ/mol]

    Dispersion                     -9.77769106 [mEh]      -6.13559377 [kcal/mol]     -25.67132435 [kJ/mol]
      Disp20                      -10.89846240 [mEh]      -6.83888841 [kcal/mol]     -28.61390910 [kJ/mol]
      Disp21                        0.71469937 [mEh]       0.44848062 [kcal/mol]       1.87644293 [kJ/mol]
      Disp22 (SDQ)                 -0.04197486 [mEh]      -0.02633962 [kcal/mol]      -0.11020499 [kJ/mol]
      Disp22 (T)                   -1.74846127 [mEh]      -1.09717601 [kcal/mol]      -4.59058442 [kJ/mol]
      Est. Disp22 (T)              -2.00070216 [mEh]      -1.25545956 [kcal/mol]      -5.25284279 [kJ/mol]
      Exch-Disp20                   2.44874900 [mEh]       1.53661319 [kcal/mol]       6.42918960 [kJ/mol]

  Total HF                        -33.36606005 [mEh]     -20.93751879 [kcal/mol]     -87.60257860 [kJ/mol]
  Total SAPT0                     -41.81577346 [mEh]     -26.23979400 [kcal/mol]    -109.78729809 [kJ/mol]
  Total SAPT2                     -39.59334622 [mEh]     -24.84519985 [kcal/mol]    -103.95231618 [kJ/mol]
  Total SAPT2+                    -40.92132388 [mEh]     -25.67851841 [kcal/mol]    -107.43892104 [kJ/mol]

  Special recipe for scaled SAPT0 (see Manual):
    Electrostatics sSAPT0         -42.71957077 [mEh]     -26.80693538 [kcal/mol]    -112.16021761 [kJ/mol]
    Exchange sSAPT0                22.64502659 [mEh]      14.20996872 [kcal/mol]      59.45450912 [kJ/mol]
    Induction sSAPT0              -12.82466464 [mEh]      -8.04759856 [kcal/mol]     -33.67115238 [kJ/mol]
    Dispersion sSAPT0              -8.36236395 [mEh]      -5.24746260 [kcal/mol]     -21.95538351 [kJ/mol]
  Total sSAPT0                    -41.26157277 [mEh]     -25.89202782 [kcal/mol]    -108.33224439 [kJ/mol]
  --------------------------------------------------------------------------------------------------------

*** Psi4 exiting successfully. Buy a developer a beer!
