                               Psi4 1.9 release

  ==> Input File <==

--------------------------------------------------------------------------
MEMORY 60 GB

molecule dimer {
-1 1
Br     3.965955     0.000000     0.000000
--
0 1
O      0.000000    -0.112811     1.567716
H     -0.349529     0.578740     1.000386
H      0.921124    -0.169041     1.237825
O      0.000000     0.112811    -1.567716
H     -0.349529    -0.578740    -1.000386
H      0.921124     0.169041    -1.237825

units ang
no_reorient
no_com
symmetry c1
}

set {
basis        aug-cc-pVTZ
scf_type     df
}

energy("sapt2+")
--------------------------------------------------------------------------

  //              Dimer HF             //
    Molecular point group: c1
  Charge       = -1
  Multiplicity = 1
  Basis Set: AUG-CC-PVTZ
    Blend: AUG-CC-PVTZ
  Basis Set: (AUG-CC-PVTZ AUX)
    Blend: AUG-CC-PVTZ-JKFIT
  @DF-RHF Final Energy: -2724.67557577392154
    Total Energy =                      -2724.6755757739219916
 Dipole X            :       -270.6992874          264.4702232           -6.2290642
 Dipole Y            :         -0.0000000            0.0000000           -0.0000000
 Dipole Z            :         -0.0000000            0.0000000           -0.0000000
 Magnitude           :                                                    6.2290642
  //            Monomer A HF           //
    Molecular point group: c1
  Multiplicity = 1
  Basis Set: AUG-CC-PVTZ
    Blend: AUG-CC-PVTZ
  Basis Set: (AUG-CC-PVTZ AUX)
    Blend: AUG-CC-PVTZ-JKFIT
  @DF-RHF Final Energy: -2572.53367743389254
    Total Energy =                      -2572.5336774338929899
  //            Monomer B HF           //
    Molecular point group: c1

    Geometry (in Angstrom), charge = 0, multiplicity = 1:

       Center              X                  Y                   Z               Mass
    ------------   -----------------  -----------------  -----------------  -----------------
      Gh(BR)          3.965955000000     0.000000000000     0.000000000000    78.918337600000
         O            0.000000000000    -0.112811000000     1.567716000000    15.994914619570
         H           -0.349529000000     0.578740000000     1.000386000000     1.007825032230
         H            0.921124000000    -0.169041000000     1.237825000000     1.007825032230
         O            0.000000000000     0.112811000000    -1.567716000000    15.994914619570
         H           -0.349529000000    -0.578740000000    -1.000386000000     1.007825032230
         H            0.921124000000     0.169041000000    -1.237825000000     1.007825032230

  Charge       = 0
  Multiplicity = 1
  Basis Set: AUG-CC-PVTZ
    Blend: AUG-CC-PVTZ
  Basis Set: (AUG-CC-PVTZ AUX)
    Blend: AUG-CC-PVTZ-JKFIT

    Orbital Energies [Eh]
    ---------------------

    Doubly Occupied:

       1A    -20.581866     2A    -20.581863     3A     -1.365495
       4A     -1.358294     5A     -0.717899     6A     -0.711730
       7A     -0.611032     8A     -0.594477     9A     -0.527592
      10A     -0.515631

  @DF-RHF Final Energy:  -152.11684420071688

   => Energetics <=

    Nuclear Repulsion Energy =             35.8545097880056929
    One-Electron Energy =                -280.8109493432856993
    Two-Electron Energy =                  92.8395953545631016
    Total Energy =                       -152.1168442007169119
 Dipole X            :         -1.4582323            2.1603160            0.7020837
 Dipole Y            :         -0.0000000            0.0000000           -0.0000000
 Dipole Z            :         -0.0000000            0.0000000           -0.0000000
 Magnitude           :                                                    0.7020837

    SAPT Results
  --------------------------------------------------------------------------------------------------------
    Electrostatics                -22.47273338 [mEh]     -14.10185310 [kcal/mol]     -59.00215336 [kJ/mol]
      Elst10,r                    -23.34951990 [mEh]     -14.65204495 [kcal/mol]     -61.30415606 [kJ/mol]
      Elst12,r                      0.87678652 [mEh]       0.55019185 [kcal/mol]       2.30200269 [kJ/mol]

    Exchange                        3.30868744 [mEh]       2.07623272 [kcal/mol]       8.68695768 [kJ/mol]
      Exch10                        2.82747030 [mEh]       1.77426440 [kcal/mol]       7.42352225 [kJ/mol]
      Exch10(S^2)                   2.82123409 [mEh]       1.77035112 [kcal/mol]       7.40714909 [kJ/mol]
      Exch11(S^2)                   0.15398673 [mEh]       0.09662813 [kcal/mol]       0.40429211 [kJ/mol]
      Exch12(S^2)                   0.32723041 [mEh]       0.20534018 [kcal/mol]       0.85914332 [kJ/mol]

    Induction                      -4.90002878 [mEh]      -3.07481448 [kcal/mol]     -12.86502380 [kJ/mol]
      Ind20,r                      -5.64372037 [mEh]      -3.54148800 [kcal/mol]     -14.81758580 [kJ/mol]
      Ind22                        -0.54922845 [mEh]      -0.34464606 [kcal/mol]      -1.44199910 [kJ/mol]
      Exch-Ind20,r                  1.86287973 [mEh]       1.16897468 [kcal/mol]       4.89099006 [kJ/mol]
      Exch-Ind22                    0.18128938 [mEh]       0.11376080 [kcal/mol]       0.47597519 [kJ/mol]
      delta HF,r (2)               -0.75124907 [mEh]      -0.47141591 [kcal/mol]      -1.97240416 [kJ/mol]

    Dispersion                     -2.81429885 [mEh]      -1.76599919 [kcal/mol]      -7.38894062 [kJ/mol]
      Disp20                       -2.78215061 [mEh]      -1.74582587 [kcal/mol]      -7.30453542 [kJ/mol]
      Disp21                        0.17339053 [mEh]       0.10880420 [kcal/mol]       0.45523677 [kJ/mol]
      Disp22 (SDQ)                 -0.03888536 [mEh]      -0.02440093 [kcal/mol]      -0.10209351 [kJ/mol]
      Disp22 (T)                   -0.47994182 [mEh]      -0.30116804 [kcal/mol]      -1.26008708 [kJ/mol]
      Est. Disp22 (T)              -0.56132262 [mEh]      -0.35223526 [kcal/mol]      -1.47375234 [kJ/mol]
      Exch-Disp20                   0.39466921 [mEh]       0.24765867 [kcal/mol]       1.03620388 [kJ/mol]

  Total HF                        -25.05413931 [mEh]     -15.72170978 [kcal/mol]     -65.77963370 [kJ/mol]
  Total SAPT0                     -27.44162071 [mEh]     -17.21987697 [kcal/mol]     -72.04796524 [kJ/mol]
  Total SAPT2                     -26.45155612 [mEh]     -16.59860206 [kcal/mol]     -69.44855103 [kJ/mol]
  Total SAPT2+                    -26.87837358 [mEh]     -16.86643406 [kcal/mol]     -70.56916011 [kJ/mol]

  Special recipe for scaled SAPT0 (see Manual):
    Electrostatics sSAPT0         -23.34951990 [mEh]     -14.65204495 [kcal/mol]     -61.30415606 [kJ/mol]
    Exchange sSAPT0                 2.82747030 [mEh]       1.77426440 [kcal/mol]       7.42352225 [kJ/mol]
    Induction sSAPT0               -4.51970896 [mEh]      -2.83616019 [kcal/mol]     -11.86649424 [kJ/mol]
    Dispersion sSAPT0              -2.38485841 [mEh]      -1.49652125 [kcal/mol]      -6.26144490 [kJ/mol]
  Total sSAPT0                    -27.42661698 [mEh]     -17.21046199 [kcal/mol]     -72.00857295 [kJ/mol]
  --------------------------------------------------------------------------------------------------------

*** Psi4 exiting successfully. Buy a developer a beer!
