                               Psi4 1.9 release

  ==> Input File <==

--------------------------------------------------------------------------
MEMORY 60 GB

molecule dimer {
-1 1
Br     5.665650     0.000000     0.000000
--
0 1
O      0.000000    -0.112811     1.567716
H     -0.349529     0.578740     1.000386
H      0.921124    -0.169041     1.237825
O      0.000000     0.112811    -1.567716
H     -0.349529    -0.578740    -1.000386
H      0.921124     0.169041    -1.237825

units ang
no_reorient
no_com
symmetry c1
}

set {
basis        aug-cc-pVTZ
scf_type     df
}

energy("sapt2+")
--------------------------------------------------------------------------

  //              Dimer HF             //
    Molecular point group: c1
  Charge       = -1
  Multiplicity = 1
  Basis Set: AUG-CC-PVTZ
    Blend: AUG-CC-PVTZ
  Basis Set: (AUG-CC-PVTZ AUX)
    Blend: AUG-CC-PVTZ-JKFIT
  @DF-RHF Final Energy: -2724.66153274068847
    Total Energy =                      -2724.6615327406884717
 Dipole X            :       -386.6408983          376.8887548           -9.7521435
 Dipole Y            :          0.0000000            0.0000000            0.0000000
 Dipole Z            :          0.0000000            0.0000000            0.0000000
 Magnitude           :                                                    9.7521435
  //            Monomer A HF           //
    Molecular point group: c1
  Multiplicity = 1
  Basis Set: AUG-CC-PVTZ
    Blend: AUG-CC-PVTZ
  Basis Set: (AUG-CC-PVTZ AUX)
    Blend: AUG-CC-PVTZ-JKFIT
  @DF-RHF Final Energy: -2572.53366877934877
    Total Energy =                      -2572.5336687793487727
  //            Monomer B HF           //
    Molecular point group: c1

    Geometry (in Angstrom), charge = 0, multiplicity = 1:

       Center              X                  Y                   Z               Mass
    ------------   -----------------  -----------------  -----------------  -----------------
      Gh(BR)          5.665650000000     0.000000000000     0.000000000000    78.918337600000
         O            0.000000000000    -0.112811000000     1.567716000000    15.994914619570
         H           -0.349529000000     0.578740000000     1.000386000000     1.007825032230
         H            0.921124000000    -0.169041000000     1.237825000000     1.007825032230
         O            0.000000000000     0.112811000000    -1.567716000000    15.994914619570
         H           -0.349529000000    -0.578740000000    -1.000386000000     1.007825032230
         H            0.921124000000     0.169041000000    -1.237825000000     1.007825032230

  Charge       = 0
  Multiplicity = 1
  Basis Set: AUG-CC-PVTZ
    Blend: AUG-CC-PVTZ
  Basis Set: (AUG-CC-PVTZ AUX)
    Blend: AUG-CC-PVTZ-JKFIT

    Orbital Energies [Eh]
    ---------------------

    Doubly Occupied:

       1A    -20.581864     2A    -20.581860     3A     -1.365501
       4A     -1.358301     5A     -0.717905     6A     -0.711737
       7A     -0.611038     8A     -0.594483     9A     -0.527601
      10A     -0.515638

  @DF-RHF Final Energy:  -152.11682900045713

   => Energetics <=

    Nuclear Repulsion Energy =             35.8545097880056929
    One-Electron Energy =                -280.8108203208591931
    Two-Electron Energy =                  92.8394815323963769
    Total Energy =                       -152.1168290004571304
 Dipole X            :         -1.4581935            2.1603160            0.7021225
 Dipole Y            :          0.0000000            0.0000000            0.0000000
 Dipole Z            :          0.0000000            0.0000000            0.0000000
 Magnitude           :                                                    0.7021225

    SAPT Results
  --------------------------------------------------------------------------------------------------------
    Electrostatics                 -9.71453596 [mEh]      -6.09596335 [kcal/mol]     -25.50551066 [kJ/mol]
      Elst10,r                    -10.22694076 [mEh]      -6.41750221 [kcal/mol]     -26.85082927 [kJ/mol]
      Elst12,r                      0.51240480 [mEh]       0.32153886 [kcal/mol]       1.34531861 [kJ/mol]

    Exchange                        0.06182909 [mEh]       0.03879834 [kcal/mol]       0.16233225 [kJ/mol]
      Exch10                        0.04875115 [mEh]       0.03059181 [kcal/mol]       0.12799613 [kJ/mol]
      Exch10(S^2)                   0.04874821 [mEh]       0.03058996 [kcal/mol]       0.12798840 [kJ/mol]
      Exch11(S^2)                   0.00240815 [mEh]       0.00151114 [kcal/mol]       0.00632261 [kJ/mol]
      Exch12(S^2)                   0.01066978 [mEh]       0.00669539 [kcal/mol]       0.02801351 [kJ/mol]

    Induction                      -0.93277593 [mEh]      -0.58532573 [kcal/mol]      -2.44900286 [kJ/mol]
      Ind20,r                      -0.87559143 [mEh]      -0.54944192 [kcal/mol]      -2.29886499 [kJ/mol]
      Ind22                        -0.07966276 [mEh]      -0.04998914 [kcal/mol]      -0.20915454 [kJ/mol]
      Exch-Ind20,r                  0.04020706 [mEh]       0.02523031 [kcal/mol]       0.10556361 [kJ/mol]
      Exch-Ind22                    0.00365810 [mEh]       0.00229550 [kcal/mol]       0.00960435 [kJ/mol]
      delta HF,r (2)               -0.02138690 [mEh]      -0.01342048 [kcal/mol]      -0.05615129 [kJ/mol]

    Dispersion                     -0.28747261 [mEh]      -0.18039179 [kcal/mol]      -0.75475924 [kJ/mol]
      Disp20                       -0.26364285 [mEh]      -0.16543839 [kcal/mol]      -0.69219420 [kJ/mol]
      Disp21                        0.02817838 [mEh]       0.01768220 [kcal/mol]       0.07398234 [kJ/mol]
      Disp22 (SDQ)                 -0.00448368 [mEh]      -0.00281355 [kcal/mol]      -0.01177189 [kJ/mol]
      Disp22 (T)                   -0.05061067 [mEh]      -0.03175868 [kcal/mol]      -0.13287830 [kJ/mol]
      Est. Disp22 (T)              -0.05578359 [mEh]      -0.03500473 [kcal/mol]      -0.14645980 [kJ/mol]
      Exch-Disp20                   0.00825912 [mEh]       0.00518268 [kcal/mol]       0.02168432 [kJ/mol]

  Total HF                        -11.03496088 [mEh]      -6.92454250 [kcal/mol]     -28.97228581 [kJ/mol]
  Total SAPT0                     -11.29034461 [mEh]      -7.08479820 [kcal/mol]     -29.64279569 [kJ/mol]
  Total SAPT2                     -10.84086653 [mEh]      -6.80274645 [kcal/mol]     -28.46269115 [kJ/mol]
  Total SAPT2+                    -10.87295541 [mEh]      -6.82288253 [kcal/mol]     -28.54694050 [kJ/mol]

  Special recipe for scaled SAPT0 (see Manual):
    Electrostatics sSAPT0         -10.22694076 [mEh]      -6.41750221 [kcal/mol]     -26.85082927 [kJ/mol]
    Exchange sSAPT0                 0.04875115 [mEh]       0.03059181 [kcal/mol]       0.12799613 [kJ/mol]
    Induction sSAPT0               -0.85676399 [mEh]      -0.53762752 [kcal/mol]      -2.24943354 [kJ/mol]
    Dispersion sSAPT0              -0.25538223 [mEh]      -0.16025477 [kcal/mol]      -0.67050595 [kJ/mol]
  Total sSAPT0                    -11.29033583 [mEh]      -7.08479269 [kcal/mol]     -29.64277263 [kJ/mol]
  --------------------------------------------------------------------------------------------------------

*** Psi4 exiting successfully. Buy a developer a beer!
