                               Psi4 1.9 release

  ==> Input File <==

--------------------------------------------------------------------------
MEMORY 60 GB

molecule dimer {
1 1
Li     0.000000     0.000000     0.000000
--
0 1
O      1.888392    -0.000000     0.000000
H      2.474378     0.761371    -0.000000
H      2.474378    -0.761371     0.000000
O     -0.944196     1.635395    -0.000000
H     -1.896556     1.762189    -0.000000
H     -0.577823     2.523560     0.000000
O     -0.944196    -1.635395     0.000000
H     -0.577823    -2.523560    -0.000000
H     -1.896556    -1.762189    -0.000000

units ang
no_reorient
no_com
symmetry c1
}

set {
basis        aug-cc-pVTZ
scf_type     df
}

energy("sapt2+")
--------------------------------------------------------------------------

  //              Dimer HF             //
    Molecular point group: c1
  Charge       = 1
  Multiplicity = 1
  Basis Set: AUG-CC-PVTZ
    Blend: AUG-CC-PVTZ
  Basis Set: (AUG-CC-PVTZ AUX)
    Blend: AUG-CC-PVTZ-JKFIT + DEF2-UNIVERSAL-JKFIT
  @DF-RHF Final Energy:  -235.55824145332221
    Total Energy =                       -235.5582414533222106
 Dipole X            :          0.0000025           -0.0000038           -0.0000013
 Dipole Y            :          0.0000000            0.0000000            0.0000000
 Dipole Z            :         -0.0000000            0.0000000           -0.0000000
 Magnitude           :                                                    0.0000013
  //            Monomer A HF           //
    Molecular point group: c1
  Multiplicity = 1
  Basis Set: AUG-CC-PVTZ
    Blend: AUG-CC-PVTZ
  Basis Set: (AUG-CC-PVTZ AUX)
    Blend: AUG-CC-PVTZ-JKFIT + DEF2-UNIVERSAL-JKFIT
  @DF-RHF Final Energy:    -7.23638454449335
    Total Energy =                         -7.2363845444933528
  //            Monomer B HF           //
    Molecular point group: c1

    Geometry (in Angstrom), charge = 0, multiplicity = 1:

       Center              X                  Y                   Z               Mass
    ------------   -----------------  -----------------  -----------------  -----------------
      Gh(LI)          0.000000000000     0.000000000000     0.000000000000     7.016003436600
         O            1.888392000000     0.000000000000     0.000000000000    15.994914619570
         H            2.474378000000     0.761371000000     0.000000000000     1.007825032230
         H            2.474378000000    -0.761371000000     0.000000000000     1.007825032230
         O           -0.944196000000     1.635395000000     0.000000000000    15.994914619570
         H           -1.896556000000     1.762189000000     0.000000000000     1.007825032230
         H           -0.577823000000     2.523560000000     0.000000000000     1.007825032230
         O           -0.944196000000    -1.635395000000     0.000000000000    15.994914619570
         H           -0.577823000000    -2.523560000000     0.000000000000     1.007825032230
         H           -1.896556000000    -1.762189000000     0.000000000000     1.007825032230

  Charge       = 0
  Multiplicity = 1
  Basis Set: AUG-CC-PVTZ
    Blend: AUG-CC-PVTZ
  Basis Set: (AUG-CC-PVTZ AUX)
    Blend: AUG-CC-PVTZ-JKFIT + DEF2-UNIVERSAL-JKFIT

    Orbital Energies [Eh]
    ---------------------

    Doubly Occupied:

       1A    -20.543180     2A    -20.543180     3A    -20.543180
       4A     -1.328239     5A     -1.326524     6A     -1.326524
       7A     -0.693917     8A     -0.693916     9A     -0.689524
      10A     -0.568645    11A     -0.549359    12A     -0.549359
      13A     -0.487709    14A     -0.483244    15A     -0.483244

  @DF-RHF Final Energy:  -228.16962811662842

   => Energetics <=

    Nuclear Repulsion Energy =             73.2993609399679826
    One-Electron Energy =                -461.3184895626944240
    Two-Electron Energy =                 159.8495005060980247
    Total Energy =                       -228.1696281166284166
 Dipole X            :          0.0000029           -0.0000038           -0.0000009
 Dipole Y            :          0.0000000            0.0000000            0.0000000
 Dipole Z            :         -0.0000000            0.0000000           -0.0000000
 Magnitude           :                                                    0.0000009

    SAPT Results
  --------------------------------------------------------------------------------------------------------
    Electrostatics               -129.31494028 [mEh]     -81.14635012 [kcal/mol]    -339.51632892 [kJ/mol]
      Elst10,r                   -140.46088027 [mEh]     -88.14053306 [kcal/mol]    -368.77999034 [kJ/mol]
      Elst12,r                     11.14593999 [mEh]       6.99418294 [kcal/mol]      29.26366142 [kJ/mol]

    Exchange                       41.05099903 [mEh]      25.75989080 [kcal/mol]     107.77938309 [kJ/mol]
      Exch10                       38.76646981 [mEh]      24.32632707 [kcal/mol]     101.78135246 [kJ/mol]
      Exch10(S^2)                  38.36580809 [mEh]      24.07490805 [kcal/mol]     100.72941527 [kJ/mol]
      Exch11(S^2)                  -0.44582110 [mEh]      -0.27975697 [kcal/mol]      -1.17050315 [kJ/mol]
      Exch12(S^2)                   2.73035032 [mEh]       1.71332069 [kcal/mol]       7.16853378 [kJ/mol]

    Induction                     -55.18237307 [mEh]     -34.62746188 [kcal/mol]    -144.88130052 [kJ/mol]
      Ind20,r                     -71.98590781 [mEh]     -45.17183913 [kcal/mol]    -188.99897493 [kJ/mol]
      Ind22                        -7.01999219 [mEh]      -4.40511161 [kcal/mol]     -18.43098696 [kJ/mol]
      Exch-Ind20,r                 24.32347943 [mEh]      15.26321378 [kcal/mol]      63.86128644 [kJ/mol]
      Exch-Ind22                    2.37200087 [mEh]       1.48845302 [kcal/mol]       6.22768741 [kJ/mol]
      delta HF,r (2)               -2.87195335 [mEh]      -1.80217794 [kcal/mol]      -7.54031249 [kJ/mol]

    Dispersion                     -2.50668840 [mEh]      -1.57297072 [kcal/mol]      -6.58130947 [kJ/mol]
      Disp20                       -2.49661912 [mEh]      -1.56665215 [kcal/mol]      -6.55487260 [kJ/mol]
      Disp21                       -0.10374036 [mEh]      -0.06509806 [kcal/mol]      -0.27237027 [kJ/mol]
      Disp22 (SDQ)                 -0.02946126 [mEh]      -0.01848722 [kcal/mol]      -0.07735053 [kJ/mol]
      Disp22 (T)                   -0.14532265 [mEh]      -0.09119134 [kcal/mol]      -0.38154456 [kJ/mol]
      Est. Disp22 (T)              -0.16294090 [mEh]      -0.10224696 [kcal/mol]      -0.42780128 [kJ/mol]
      Exch-Disp20                   0.28607325 [mEh]       0.17951367 [kcal/mol]       0.75108521 [kJ/mol]

  Total HF                       -152.22879220 [mEh]     -95.52500929 [kcal/mol]    -399.67663886 [kJ/mol]
  Total SAPT0                    -154.43933807 [mEh]     -96.91214777 [kcal/mol]    -405.48042625 [kJ/mol]
  Total SAPT2                    -145.65686019 [mEh]     -91.40105969 [kcal/mol]    -382.42203375 [kJ/mol]
  Total SAPT2+                   -145.95300271 [mEh]     -91.58689193 [kcal/mol]    -383.19955583 [kJ/mol]

  Special recipe for scaled SAPT0 (see Manual):
    Electrostatics sSAPT0        -140.46088027 [mEh]     -88.14053306 [kcal/mol]    -368.77999034 [kJ/mol]
    Exchange sSAPT0                38.76646981 [mEh]      24.32632707 [kcal/mol]     101.78135246 [kJ/mol]
    Induction sSAPT0              -49.76435115 [mEh]     -31.22760180 [kcal/mol]    -130.65628593 [kJ/mol]
    Dispersion sSAPT0              -2.20148939 [mEh]      -1.38145545 [kcal/mol]      -5.78000960 [kJ/mol]
  Total sSAPT0                   -153.66025100 [mEh]     -96.42326324 [kcal/mol]    -403.43493341 [kJ/mol]
  --------------------------------------------------------------------------------------------------------

*** Psi4 exiting successfully. Buy a developer a beer!
