                               Psi4 1.9 release

  ==> Input File <==

--------------------------------------------------------------------------
MEMORY 60 GB

molecule dimer {
1 1
Li     0.000000     0.000000     0.000000
--
0 1
O      1.662605     0.000000    -0.979518
H      2.073385     0.762027    -1.395425
H      2.073385    -0.762027    -1.395425
O     -1.663924     0.000000    -0.977575
H     -2.075145     0.762032    -1.393035
H     -2.075145    -0.762032    -1.393035
O      0.000286     1.663355     0.978432
H     -0.761642     2.074836     1.393818
H      0.762446     2.074902     1.393328
O      0.000286    -1.663355     0.978432
H     -0.761642    -2.074835     1.393818
H      0.762446    -2.074902     1.393328

units ang
no_reorient
no_com
symmetry c1
}

set {
basis        aug-cc-pVTZ
scf_type     df
}

energy("sapt2+")
--------------------------------------------------------------------------

  //              Dimer HF             //
    Molecular point group: c1
  Charge       = 1
  Multiplicity = 1
  Basis Set: AUG-CC-PVTZ
    Blend: AUG-CC-PVTZ
  Basis Set: (AUG-CC-PVTZ AUX)
    Blend: AUG-CC-PVTZ-JKFIT + DEF2-UNIVERSAL-JKFIT
  @DF-RHF Final Energy:  -311.64412330977228
    Total Energy =                       -311.6441233097722829
 Dipole X            :          0.0145514           -0.0149062           -0.0003548
 Dipole Y            :         -0.0000013            0.0000019            0.0000006
 Dipole Z            :          0.0069387           -0.0084282           -0.0014895
 Magnitude           :                                                    0.0015312
  //            Monomer A HF           //
    Molecular point group: c1
  Multiplicity = 1
  Basis Set: AUG-CC-PVTZ
    Blend: AUG-CC-PVTZ
  Basis Set: (AUG-CC-PVTZ AUX)
    Blend: AUG-CC-PVTZ-JKFIT + DEF2-UNIVERSAL-JKFIT
  @DF-RHF Final Energy:    -7.23638487357213
    Total Energy =                         -7.2363848735721303
  //            Monomer B HF           //
    Molecular point group: c1

    Geometry (in Angstrom), charge = 0, multiplicity = 1:

       Center              X                  Y                   Z               Mass
    ------------   -----------------  -----------------  -----------------  -----------------
      Gh(LI)          0.000000000000     0.000000000000     0.000000000000     7.016003436600
         O            1.662605000000     0.000000000000    -0.979518000000    15.994914619570
         H            2.073385000000     0.762027000000    -1.395425000000     1.007825032230
         H            2.073385000000    -0.762027000000    -1.395425000000     1.007825032230
         O           -1.663924000000     0.000000000000    -0.977575000000    15.994914619570
         H           -2.075145000000     0.762032000000    -1.393035000000     1.007825032230
         H           -2.075145000000    -0.762032000000    -1.393035000000     1.007825032230
         O            0.000286000000     1.663355000000     0.978432000000    15.994914619570
         H           -0.761642000000     2.074836000000     1.393818000000     1.007825032230
         H            0.762446000000     2.074902000000     1.393328000000     1.007825032230
         O            0.000286000000    -1.663355000000     0.978432000000    15.994914619570
         H           -0.761642000000    -2.074835000000     1.393818000000     1.007825032230
         H            0.762446000000    -2.074902000000     1.393328000000     1.007825032230

  Charge       = 0
  Multiplicity = 1
  Basis Set: AUG-CC-PVTZ
    Blend: AUG-CC-PVTZ
  Basis Set: (AUG-CC-PVTZ AUX)
    Blend: AUG-CC-PVTZ-JKFIT + DEF2-UNIVERSAL-JKFIT

    Orbital Energies [Eh]
    ---------------------

    Doubly Occupied:

       1A    -20.530077     2A    -20.530073     3A    -20.530069
       4A    -20.530067     5A     -1.316924     6A     -1.313871
       7A     -1.313866     8A     -1.312734     9A     -0.683699
      10A     -0.680677    11A     -0.680674    12A     -0.675251
      13A     -0.563404    14A     -0.537611    15A     -0.537593
      16A     -0.528148    17A     -0.478410    18A     -0.474375
      19A     -0.466739    20A     -0.466733

  @DF-RHF Final Energy:  -304.21981991410075

   => Energetics <=

    Nuclear Repulsion Energy =            132.0254262205156124
    One-Electron Energy =                -684.1885026219542851
    Two-Electron Energy =                 247.9432564873379761
    Total Energy =                       -304.2198199141007535
 Dipole X            :          0.0146542           -0.0149062           -0.0002520
 Dipole Y            :         -0.0000014            0.0000019            0.0000005
 Dipole Z            :          0.0071020           -0.0084282           -0.0013262
 Magnitude           :                                                    0.0013499

    SAPT Results
  --------------------------------------------------------------------------------------------------------
    Electrostatics               -153.95705277 [mEh]     -96.60950917 [kcal/mol]    -404.21418635 [kJ/mol]
      Elst10,r                   -167.85699853 [mEh]    -105.33185682 [kcal/mol]    -440.70848893 [kJ/mol]
      Elst12,r                     13.89994576 [mEh]       8.72234765 [kcal/mol]      36.49430258 [kJ/mol]

    Exchange                       42.63338133 [mEh]      26.75285068 [kcal/mol]     111.93392725 [kJ/mol]
      Exch10                       40.02726921 [mEh]      25.11749064 [kcal/mol]     105.09158082 [kJ/mol]
      Exch10(S^2)                  39.59581068 [mEh]      24.84674632 [kcal/mol]     103.95878661 [kJ/mol]
      Exch11(S^2)                  -0.59815978 [mEh]      -0.37535093 [kcal/mol]      -1.57046829 [kJ/mol]
      Exch12(S^2)                   3.20427190 [mEh]       2.01071098 [kcal/mol]       8.41281472 [kJ/mol]

    Induction                     -66.21456867 [mEh]     -41.55026914 [kcal/mol]    -173.84632610 [kJ/mol]
      Ind20,r                     -80.75985024 [mEh]     -50.67757113 [kcal/mol]    -212.03495759 [kJ/mol]
      Ind22                        -8.75311072 [mEh]      -5.49265990 [kcal/mol]     -22.98128902 [kJ/mol]
      Exch-Ind20,r                 24.24088686 [mEh]      15.21138616 [kcal/mol]      63.64443969 [kJ/mol]
      Exch-Ind22                    2.62733482 [mEh]       1.64867749 [kcal/mol]       6.89806662 [kJ/mol]
      delta HF,r (2)               -3.56982940 [mEh]      -2.24010177 [kcal/mol]      -9.37258579 [kJ/mol]

    Dispersion                     -3.07599471 [mEh]      -1.93021582 [kcal/mol]      -8.07602299 [kJ/mol]
      Disp20                       -3.05823818 [mEh]      -1.91907343 [kcal/mol]      -8.02940323 [kJ/mol]
      Disp21                       -0.10782386 [mEh]      -0.06766049 [kcal/mol]      -0.28309150 [kJ/mol]
      Disp22 (SDQ)                 -0.03995408 [mEh]      -0.02507156 [kcal/mol]      -0.10489942 [kJ/mol]
      Disp22 (T)                   -0.18196321 [mEh]      -0.11418364 [kcal/mol]      -0.47774435 [kJ/mol]
      Est. Disp22 (T)              -0.20236815 [mEh]      -0.12698793 [kcal/mol]      -0.53131750 [kJ/mol]
      Exch-Disp20                   0.33238956 [mEh]       0.20857760 [kcal/mol]       0.87268866 [kJ/mol]

  Total HF                       -187.91852210 [mEh]    -117.92065292 [kcal/mol]    -493.38001180 [kJ/mol]
  Total SAPT0                    -190.64437072 [mEh]    -119.63114875 [kcal/mol]    -500.53672637 [kJ/mol]
  Total SAPT2                    -180.26408873 [mEh]    -113.11742346 [kcal/mol]    -473.28329977 [kJ/mol]
  Total SAPT2+                   -180.61423482 [mEh]    -113.33714345 [kcal/mol]    -474.20260818 [kJ/mol]

  Special recipe for scaled SAPT0 (see Manual):
    Electrostatics sSAPT0        -167.85699853 [mEh]    -105.33185682 [kcal/mol]    -440.70848893 [kJ/mol]
    Exchange sSAPT0                40.02726921 [mEh]      25.11749064 [kcal/mol]     105.09158082 [kJ/mol]
    Induction sSAPT0              -59.28769909 [mEh]     -37.20359286 [kcal/mol]    -155.65983252 [kJ/mol]
    Dispersion sSAPT0              -2.71486407 [mEh]      -1.70360293 [kcal/mol]      -7.12787465 [kJ/mol]
  Total sSAPT0                   -189.83229249 [mEh]    -119.12156197 [kcal/mol]    -498.40461527 [kJ/mol]
  --------------------------------------------------------------------------------------------------------

*** Psi4 exiting successfully. Buy a developer a beer!
