                               Psi4 1.9 release

  ==> Input File <==

--------------------------------------------------------------------------
MEMORY 60 GB

molecule dimer {
1 1
Li     0.000000     0.000000     0.000000
--
0 1
O      3.713222     0.016710     0.000648
H      4.294887     0.778687     0.091204
H      4.305980    -0.736703    -0.089705
O     -1.187467     1.513210    -0.085851
H     -1.998484     1.683057     0.398519
H     -0.961041     2.345623    -0.506960
O     -1.172691    -1.525054     0.087012
H     -0.937416    -2.355207     0.507751
H     -1.981389    -1.703558    -0.398129
O      1.288730    -0.225964     1.412737
H      1.240636    -0.151784     2.367541
H      2.223417    -0.153396     1.174699
O      1.287118     0.239899    -1.412105
H      1.240058     0.167974    -2.367136
H      2.222132     0.172652    -1.173732

units ang
no_reorient
no_com
symmetry c1
}

set {
basis        aug-cc-pVTZ
scf_type     df
}

energy("sapt2+")
--------------------------------------------------------------------------

  //              Dimer HF             //
    Molecular point group: c1
  Charge       = 1
  Multiplicity = 1
  Basis Set: AUG-CC-PVTZ
    Blend: AUG-CC-PVTZ
  Basis Set: (AUG-CC-PVTZ AUX)
    Blend: AUG-CC-PVTZ-JKFIT + DEF2-UNIVERSAL-JKFIT
  @DF-RHF Final Energy:  -387.72300254868588
    Total Energy =                       -387.7230025486858835
 Dipole X            :        -75.9191025           77.6300929            1.7109904
 Dipole Y            :         -0.3647060            0.3736990            0.0089930
 Dipole Z            :         -0.0447488            0.0445597           -0.0001890
 Magnitude           :                                                    1.7110140
  //            Monomer A HF           //
    Molecular point group: c1
  Multiplicity = 1
  Basis Set: AUG-CC-PVTZ
    Blend: AUG-CC-PVTZ
  Basis Set: (AUG-CC-PVTZ AUX)
    Blend: AUG-CC-PVTZ-JKFIT + DEF2-UNIVERSAL-JKFIT
  @DF-RHF Final Energy:    -7.23638490794528
    Total Energy =                         -7.2363849079452818
  //            Monomer B HF           //
    Molecular point group: c1

    Geometry (in Angstrom), charge = 0, multiplicity = 1:

       Center              X                  Y                   Z               Mass
    ------------   -----------------  -----------------  -----------------  -----------------
      Gh(LI)          0.000000000000     0.000000000000     0.000000000000     7.016003436600
         O            3.713222000000     0.016710000000     0.000648000000    15.994914619570
         H            4.294887000000     0.778687000000     0.091204000000     1.007825032230
         H            4.305980000000    -0.736703000000    -0.089705000000     1.007825032230
         O           -1.187467000000     1.513210000000    -0.085851000000    15.994914619570
         H           -1.998484000000     1.683057000000     0.398519000000     1.007825032230
         H           -0.961041000000     2.345623000000    -0.506960000000     1.007825032230
         O           -1.172691000000    -1.525054000000     0.087012000000    15.994914619570
         H           -0.937416000000    -2.355207000000     0.507751000000     1.007825032230
         H           -1.981389000000    -1.703558000000    -0.398129000000     1.007825032230
         O            1.288730000000    -0.225964000000     1.412737000000    15.994914619570
         H            1.240636000000    -0.151784000000     2.367541000000     1.007825032230
         H            2.223417000000    -0.153396000000     1.174699000000     1.007825032230
         O            1.287118000000     0.239899000000    -1.412105000000    15.994914619570
         H            1.240058000000     0.167974000000    -2.367136000000     1.007825032230
         H            2.222132000000     0.172652000000    -1.173732000000     1.007825032230

  Charge       = 0
  Multiplicity = 1
  Basis Set: AUG-CC-PVTZ
    Blend: AUG-CC-PVTZ
  Basis Set: (AUG-CC-PVTZ AUX)
    Blend: AUG-CC-PVTZ-JKFIT + DEF2-UNIVERSAL-JKFIT

    Orbital Energies [Eh]
    ---------------------

    Doubly Occupied:

       1A    -20.602499     2A    -20.516374     3A    -20.516366
       4A    -20.503466     5A    -20.503446     6A     -1.391123
       7A     -1.301793     8A     -1.299534     9A     -1.291042
      10A     -1.286785    11A     -0.751877    12A     -0.692237
      13A     -0.668833    14A     -0.666104    15A     -0.657809
      16A     -0.608485    17A     -0.552797    18A     -0.543389
      19A     -0.518191    20A     -0.513503    21A     -0.500191
      22A     -0.459384    23A     -0.458149    24A     -0.447893
      25A     -0.444393

  @DF-RHF Final Energy:  -380.27992494589944

   => Energetics <=

    Nuclear Repulsion Energy =            198.9667442128722143
    One-Electron Energy =                -923.1020018158536686
    Two-Electron Energy =                 343.8553326570820445
    Total Energy =                       -380.2799249458994382
 Dipole X            :        -76.1305764           77.6300929            1.4995165
 Dipole Y            :         -0.3659212            0.3736990            0.0077778
 Dipole Z            :         -0.0450368            0.0445597           -0.0004771
 Magnitude           :                                                    1.4995367

    SAPT Results
  --------------------------------------------------------------------------------------------------------
    Electrostatics               -170.43857856 [mEh]    -106.95182274 [kcal/mol]    -447.48642635 [kJ/mol]
      Elst10,r                   -185.41214810 [mEh]    -116.34787949 [kcal/mol]    -486.79952777 [kJ/mol]
      Elst12,r                     14.97356954 [mEh]       9.39605674 [kcal/mol]      39.31310142 [kJ/mol]

    Exchange                       43.22267950 [mEh]      27.12264087 [kcal/mol]     113.48112938 [kJ/mol]
      Exch10                       40.57593589 [mEh]      25.46178418 [kcal/mol]     106.53210499 [kJ/mol]
      Exch10(S^2)                  40.13272151 [mEh]      25.18366296 [kcal/mol]     105.36844581 [kJ/mol]
      Exch11(S^2)                  -0.61584207 [mEh]      -0.38644674 [kcal/mol]      -1.61689314 [kJ/mol]
      Exch12(S^2)                   3.26258568 [mEh]       2.04730343 [kcal/mol]       8.56591753 [kJ/mol]

    Induction                     -68.35628320 [mEh]     -42.89421530 [kcal/mol]    -179.46939682 [kJ/mol]
      Ind20,r                     -82.69561530 [mEh]     -51.89228204 [kcal/mol]    -217.11730805 [kJ/mol]
      Ind22                        -9.23911819 [mEh]      -5.79763420 [kcal/mol]     -24.25730148 [kJ/mol]
      Exch-Ind20,r                 24.51852562 [mEh]      15.38560711 [kcal/mol]      64.37338014 [kJ/mol]
      Exch-Ind22                    2.73931762 [mEh]       1.71894776 [kcal/mol]       7.19207742 [kJ/mol]
      delta HF,r (2)               -3.67939295 [mEh]      -2.30885393 [kcal/mol]      -9.66024486 [kJ/mol]

    Dispersion                     -3.13760799 [mEh]      -1.96887874 [kcal/mol]      -8.23778865 [kJ/mol]
      Disp20                       -3.12017534 [mEh]      -1.95793958 [kcal/mol]      -8.19201922 [kJ/mol]
      Disp21                       -0.10557898 [mEh]      -0.06625181 [kcal/mol]      -0.27719758 [kJ/mol]
      Disp22 (SDQ)                 -0.04280906 [mEh]      -0.02686309 [kcal/mol]      -0.11239516 [kJ/mol]
      Disp22 (T)                   -0.18646177 [mEh]      -0.11700653 [kcal/mol]      -0.48955530 [kJ/mol]
      Est. Disp22 (T)              -0.20739917 [mEh]      -0.13014494 [kcal/mol]      -0.54452645 [kJ/mol]
      Exch-Disp20                   0.33835455 [mEh]       0.21232069 [kcal/mol]       0.88834975 [kJ/mol]

  Total HF                       -206.69269484 [mEh]    -129.70162417 [kcal/mol]    -542.67159554 [kJ/mol]
  Total SAPT0                    -209.47451563 [mEh]    -131.44724307 [kcal/mol]    -549.97526501 [kJ/mol]
  Total SAPT2                    -198.35400305 [mEh]    -124.46901608 [kcal/mol]    -520.77836326 [kJ/mol]
  Total SAPT2+                   -198.70979026 [mEh]    -124.69227592 [kcal/mol]    -521.71248244 [kJ/mol]

  Special recipe for scaled SAPT0 (see Manual):
    Electrostatics sSAPT0        -185.41214810 [mEh]    -116.34787949 [kcal/mol]    -486.79952777 [kJ/mol]
    Exchange sSAPT0                40.57593589 [mEh]      25.46178418 [kcal/mol]     106.53210499 [kJ/mol]
    Induction sSAPT0              -61.03515160 [mEh]     -38.30013586 [kcal/mol]    -160.24776845 [kJ/mol]
    Dispersion sSAPT0              -2.77048646 [mEh]      -1.73850650 [kcal/mol]      -7.27391119 [kJ/mol]
  Total sSAPT0                   -208.64185027 [mEh]    -130.92473767 [kcal/mol]    -547.78910242 [kJ/mol]
  --------------------------------------------------------------------------------------------------------

*** Psi4 exiting successfully. Buy a developer a beer!
