                               Psi4 1.9 release

  ==> Input File <==

--------------------------------------------------------------------------
MEMORY 60 GB

molecule dimer {
1 1
Li     0.000000     0.000000     0.000000
--
0 1
O      2.105125     0.004064     0.000073
H      2.692086     0.763743     0.003931
H      2.695323    -0.753099    -0.003791
O     -0.005881     2.202644     0.005709
H     -0.759055     2.797230     0.004681
H      0.749729     2.794134     0.004461
O     -2.103286     0.002241    -0.000014
H     -2.698007    -0.751365    -0.003850
H     -2.685658     0.765424     0.003881
O      0.001016    -2.196479    -0.005695
H      0.753343    -2.792129    -0.004557
H     -0.755808    -2.786400    -0.004582
O      0.003099    -0.001488     2.050341
H     -0.759215    -0.007697     2.631837
H      0.768379    -0.011643     2.627869
O      0.003145     0.008130    -2.050319
H     -0.759192     0.007978    -2.631818
H      0.768403     0.003906    -2.627951

units ang
no_reorient
no_com
symmetry c1
}

set {
basis        aug-cc-pVTZ
scf_type     df
}

energy("sapt2+")
--------------------------------------------------------------------------

  //              Dimer HF             //
    Molecular point group: c1
  Charge       = 1
  Multiplicity = 1
  Basis Set: AUG-CC-PVTZ
    Blend: AUG-CC-PVTZ
  Basis Set: (AUG-CC-PVTZ AUX)
    Blend: AUG-CC-PVTZ-JKFIT + DEF2-UNIVERSAL-JKFIT
  @DF-RHF Final Energy:  -463.77162852197995
    Total Energy =                       -463.7716285219799488
 Dipole X            :         -0.0653100            0.0681662            0.0028562
 Dipole Y            :         -0.3510067            0.3457783           -0.0052284
 Dipole Z            :         -0.0017021            0.0016460           -0.0000562
 Magnitude           :                                                    0.0059580
  //            Monomer A HF           //
    Molecular point group: c1
  Multiplicity = 1
  Basis Set: AUG-CC-PVTZ
    Blend: AUG-CC-PVTZ
  Basis Set: (AUG-CC-PVTZ AUX)
    Blend: AUG-CC-PVTZ-JKFIT + DEF2-UNIVERSAL-JKFIT
  @DF-RHF Final Energy:    -7.23638506346281
    Total Energy =                         -7.2363850634628140
  //            Monomer B HF           //
    Molecular point group: c1

    Geometry (in Angstrom), charge = 0, multiplicity = 1:

       Center              X                  Y                   Z               Mass
    ------------   -----------------  -----------------  -----------------  -----------------
      Gh(LI)          0.000000000000     0.000000000000     0.000000000000     7.016003436600
         O            2.105125000000     0.004064000000     0.000073000000    15.994914619570
         H            2.692086000000     0.763743000000     0.003931000000     1.007825032230
         H            2.695323000000    -0.753099000000    -0.003791000000     1.007825032230
         O           -0.005881000000     2.202644000000     0.005709000000    15.994914619570
         H           -0.759055000000     2.797230000000     0.004681000000     1.007825032230
         H            0.749729000000     2.794134000000     0.004461000000     1.007825032230
         O           -2.103286000000     0.002241000000    -0.000014000000    15.994914619570
         H           -2.698007000000    -0.751365000000    -0.003850000000     1.007825032230
         H           -2.685658000000     0.765424000000     0.003881000000     1.007825032230
         O            0.001016000000    -2.196479000000    -0.005695000000    15.994914619570
         H            0.753343000000    -2.792129000000    -0.004557000000     1.007825032230
         H           -0.755808000000    -2.786400000000    -0.004582000000     1.007825032230
         O            0.003099000000    -0.001488000000     2.050341000000    15.994914619570
         H           -0.759215000000    -0.007697000000     2.631837000000     1.007825032230
         H            0.768379000000    -0.011643000000     2.627869000000     1.007825032230
         O            0.003145000000     0.008130000000    -2.050319000000    15.994914619570
         H           -0.759192000000     0.007978000000    -2.631818000000     1.007825032230
         H            0.768403000000     0.003906000000    -2.627951000000     1.007825032230

  Charge       = 0
  Multiplicity = 1
  Basis Set: AUG-CC-PVTZ
    Blend: AUG-CC-PVTZ
  Basis Set: (AUG-CC-PVTZ AUX)
    Blend: AUG-CC-PVTZ-JKFIT + DEF2-UNIVERSAL-JKFIT

    Orbital Energies [Eh]
    ---------------------

    Doubly Occupied:

       1A    -20.524502     2A    -20.524343     3A    -20.516066
       4A    -20.515961     5A    -20.499202     6A    -20.499201
       7A     -1.311016     8A     -1.309677     9A     -1.302094
      10A     -1.301410    11A     -1.285147    12A     -1.284589
      13A     -0.679835    14A     -0.674132    15A     -0.665880
      16A     -0.658878    17A     -0.653296    18A     -0.652700
      19A     -0.557657    20A     -0.533037    21A     -0.529458
      22A     -0.517448    23A     -0.513986    24A     -0.497707
      25A     -0.467863    26A     -0.465151    27A     -0.463409
      28A     -0.454716    29A     -0.439547    30A     -0.430658

  @DF-RHF Final Energy:  -456.30157670964252

   => Energetics <=

    Nuclear Repulsion Energy =            291.3832392304478276
    One-Electron Energy =               -1213.9124883747413151
    Two-Electron Energy =                 466.2276724346510264
    Total Energy =                       -456.3015767096425179
 Dipole X            :         -0.0653071            0.0681662            0.0028591
 Dipole Y            :         -0.3508615            0.3457783           -0.0050832
 Dipole Z            :         -0.0017038            0.0016460           -0.0000578
 Magnitude           :                                                    0.0058324

    SAPT Results
  --------------------------------------------------------------------------------------------------------
    Electrostatics               -176.69138943 [mEh]    -110.87552080 [kcal/mol]    -463.90317903 [kJ/mol]
      Elst10,r                   -194.66769784 [mEh]    -122.15582463 [kcal/mol]    -511.09997025 [kJ/mol]
      Elst12,r                     17.97630841 [mEh]      11.28030383 [kcal/mol]      47.19679123 [kJ/mol]

    Exchange                       25.41803443 [mEh]      15.95005741 [kcal/mol]      66.73504021 [kJ/mol]
      Exch10                       23.36388307 [mEh]      14.66105797 [kcal/mol]      61.34186654 [kJ/mol]
      Exch10(S^2)                  23.21335793 [mEh]      14.56660202 [kcal/mol]      60.94666284 [kJ/mol]
      Exch11(S^2)                  -0.42889701 [mEh]      -0.26913694 [kcal/mol]      -1.12606894 [kJ/mol]
      Exch12(S^2)                   2.48304837 [mEh]       1.55813638 [kcal/mol]       6.51924261 [kJ/mol]

    Induction                     -69.84484235 [mEh]     -43.82830027 [kcal/mol]    -183.37760833 [kJ/mol]
      Ind20,r                     -74.03688192 [mEh]     -46.45884481 [kcal/mol]    -194.38380669 [kJ/mol]
      Ind22                        -9.31960726 [mEh]      -5.84814185 [kcal/mol]     -24.46862550 [kJ/mol]
      Exch-Ind20,r                 14.59905995 [mEh]       9.16104843 [kcal/mol]      38.32982661 [kJ/mol]
      Exch-Ind22                    1.83769902 [mEh]       1.15317354 [kcal/mol]       4.82487810 [kJ/mol]
      delta HF,r (2)               -2.92511214 [mEh]      -1.83553558 [kcal/mol]      -7.67988085 [kJ/mol]

    Dispersion                     -2.62556079 [mEh]      -1.64756427 [kcal/mol]      -6.89340891 [kJ/mol]
      Disp20                       -2.56769514 [mEh]      -1.61125303 [kcal/mol]      -6.74148266 [kJ/mol]
      Disp21                       -0.05016563 [mEh]      -0.03147941 [kcal/mol]      -0.13170984 [kJ/mol]
      Disp22 (SDQ)                 -0.04415086 [mEh]      -0.02770508 [kcal/mol]      -0.11591806 [kJ/mol]
      Disp22 (T)                   -0.15556354 [mEh]      -0.09761759 [kcal/mol]      -0.40843201 [kJ/mol]
      Est. Disp22 (T)              -0.17629788 [mEh]      -0.11062859 [kcal/mol]      -0.46287002 [kJ/mol]
      Exch-Disp20                   0.21274872 [mEh]       0.13350184 [kcal/mol]       0.55857168 [kJ/mol]

  Total HF                       -233.66674887 [mEh]    -146.62809863 [kcal/mol]    -613.49196465 [kJ/mol]
  Total SAPT0                    -236.02169530 [mEh]    -148.10584982 [kcal/mol]    -619.67487563 [kJ/mol]
  Total SAPT2                    -223.47314377 [mEh]    -140.23151485 [kcal/mol]    -586.72865813 [kJ/mol]
  Total SAPT2+                   -223.74375814 [mEh]    -140.40132793 [kcal/mol]    -587.43915605 [kJ/mol]

  Special recipe for scaled SAPT0 (see Manual):
    Electrostatics sSAPT0        -194.66769784 [mEh]    -122.15582463 [kcal/mol]    -511.09997025 [kJ/mol]
    Exchange sSAPT0                23.36388307 [mEh]      14.66105797 [kcal/mol]      61.34186654 [kJ/mol]
    Induction sSAPT0              -62.07708929 [mEh]     -38.95396163 [kcal/mol]    -162.98337548 [kJ/mol]
    Dispersion sSAPT0              -2.35078087 [mEh]      -1.47513727 [kcal/mol]      -6.17197433 [kJ/mol]
  Total sSAPT0                   -235.73168493 [mEh]    -147.92386556 [kcal/mol]    -618.91345352 [kJ/mol]
  --------------------------------------------------------------------------------------------------------

*** Psi4 exiting successfully. Buy a developer a beer!
