                               Psi4 1.9 release

  ==> Input File <==

--------------------------------------------------------------------------
MEMORY 60 GB

molecule dimer {
1 1
Na     0.000000     0.000000     0.000000
--
0 1
O      2.219984     0.000000     0.000000
H      2.808012     0.759335    -0.000000
H      2.808012    -0.759335    -0.000000
O     -1.109992     1.922562     0.000000
H     -2.061610     2.052143     0.000000
H     -0.746403     2.811478    -0.000000
O     -1.109992    -1.922562     0.000000
H     -0.746403    -2.811478     0.000000
H     -2.061610    -2.052143    -0.000000

units ang
no_reorient
no_com
symmetry c1
}

set {
basis        aug-cc-pVTZ
scf_type     df
}

energy("sapt2+")
--------------------------------------------------------------------------

  //              Dimer HF             //
    Molecular point group: c1
  Charge       = 1
  Multiplicity = 1
  Basis Set: AUG-CC-PVTZ
    Blend: AUG-CC-PVTZ
  Basis Set: (AUG-CC-PVTZ AUX)
    Blend: AUG-CC-PVTZ-JKFIT + DEF2-UNIVERSAL-JKFIT
  @DF-RHF Final Energy:  -389.95713352564917
    Total Energy =                       -389.9571335256491693
 Dipole X            :          0.0000027           -0.0000038           -0.0000011
 Dipole Y            :         -0.0000000           -0.0000000           -0.0000000
 Dipole Z            :          0.0000000            0.0000000            0.0000000
 Magnitude           :                                                    0.0000011
  //            Monomer A HF           //
    Molecular point group: c1
  Multiplicity = 1
  Basis Set: AUG-CC-PVTZ
    Blend: AUG-CC-PVTZ
  Basis Set: (AUG-CC-PVTZ AUX)
    Blend: AUG-CC-PVTZ-JKFIT + DEF2-UNIVERSAL-JKFIT
  @DF-RHF Final Energy:  -161.67607192661941
    Total Energy =                       -161.6760719266194428
  //            Monomer B HF           //
    Molecular point group: c1

    Geometry (in Angstrom), charge = 0, multiplicity = 1:

       Center              X                  Y                   Z               Mass
    ------------   -----------------  -----------------  -----------------  -----------------
      Gh(NA)          0.000000000000     0.000000000000     0.000000000000    22.989769282000
         O            2.219984000000     0.000000000000     0.000000000000    15.994914619570
         H            2.808012000000     0.759335000000     0.000000000000     1.007825032230
         H            2.808012000000    -0.759335000000     0.000000000000     1.007825032230
         O           -1.109992000000     1.922562000000     0.000000000000    15.994914619570
         H           -2.061610000000     2.052143000000     0.000000000000     1.007825032230
         H           -0.746403000000     2.811478000000     0.000000000000     1.007825032230
         O           -1.109992000000    -1.922562000000     0.000000000000    15.994914619570
         H           -0.746403000000    -2.811478000000     0.000000000000     1.007825032230
         H           -2.061610000000    -2.052143000000     0.000000000000     1.007825032230

  Charge       = 0
  Multiplicity = 1
  Basis Set: AUG-CC-PVTZ
    Blend: AUG-CC-PVTZ
  Basis Set: (AUG-CC-PVTZ AUX)
    Blend: AUG-CC-PVTZ-JKFIT + DEF2-UNIVERSAL-JKFIT

    Orbital Energies [Eh]
    ---------------------

    Doubly Occupied:

       1A    -20.548768     2A    -20.548768     3A    -20.548767
       4A     -1.333079     5A     -1.332726     6A     -1.332726
       7A     -0.697511     8A     -0.697510     9A     -0.696289
      10A     -0.567403    11A     -0.560904    12A     -0.560903
      13A     -0.491397    14A     -0.490002    15A     -0.490002

  @DF-RHF Final Energy:  -228.17423608657970

   => Energetics <=

    Nuclear Repulsion Energy =             66.7807464906174602
    One-Electron Energy =                -448.1164555646381018
    Two-Electron Energy =                 153.1614729874409591
    Total Energy =                       -228.1742360865796968
 Dipole X            :          0.0000030           -0.0000038           -0.0000007
 Dipole Y            :         -0.0000000           -0.0000000           -0.0000000
 Dipole Z            :          0.0000000            0.0000000            0.0000000
 Magnitude           :                                                    0.0000007

    SAPT Results
  --------------------------------------------------------------------------------------------------------
    Electrostatics               -109.97761829 [mEh]     -69.01199738 [kcal/mol]    -288.74619704 [kJ/mol]
      Elst10,r                   -117.00081607 [mEh]     -73.41912052 [kcal/mol]    -307.18560027 [kJ/mol]
      Elst12,r                      7.02319778 [mEh]       4.40712314 [kcal/mol]      18.43940323 [kJ/mol]

    Exchange                       38.57052001 [mEh]      24.20336672 [kcal/mol]     101.26688634 [kJ/mol]
      Exch10                       35.61533015 [mEh]      22.34895708 [kcal/mol]      93.50803642 [kJ/mol]
      Exch10(S^2)                  35.56233081 [mEh]      22.31569950 [kcal/mol]      93.36888669 [kJ/mol]
      Exch11(S^2)                  -0.54513829 [mEh]      -0.34207944 [kcal/mol]      -1.43126039 [kJ/mol]
      Exch12(S^2)                   3.50032816 [mEh]       2.19648908 [kcal/mol]       9.19011031 [kJ/mol]

    Induction                     -28.83695428 [mEh]     -18.09546201 [kcal/mol]     -75.71141303 [kJ/mol]
      Ind20,r                     -59.34497539 [mEh]     -37.23953428 [kcal/mol]    -155.81021142 [kJ/mol]
      Ind22                        -7.12498446 [mEh]      -4.47099525 [kcal/mol]     -18.70664413 [kJ/mol]
      Exch-Ind20,r                 31.05149701 [mEh]      19.48510855 [kcal/mol]      81.52569417 [kJ/mol]
      Exch-Ind22                    3.72805671 [mEh]       2.33939091 [kcal/mol]       9.78801155 [kJ/mol]
      delta HF,r (2)                2.85345185 [mEh]       1.79056807 [kcal/mol]       7.49173680 [kJ/mol]

    Dispersion                     -2.23423245 [mEh]      -1.40200203 [kcal/mol]      -5.86597648 [kJ/mol]
      Disp20                       -2.33631832 [mEh]      -1.46606188 [kcal/mol]      -6.13400291 [kJ/mol]
      Disp21                       -0.06966685 [mEh]      -0.04371661 [kcal/mol]      -0.18291029 [kJ/mol]
      Disp22 (SDQ)                 -0.13221221 [mEh]      -0.08296442 [kcal/mol]      -0.34712312 [kJ/mol]
      Disp22 (T)                   -0.17812136 [mEh]      -0.11177284 [kcal/mol]      -0.46765757 [kJ/mol]
      Est. Disp22 (T)              -0.21346267 [mEh]      -0.13394985 [kcal/mol]      -0.56044616 [kJ/mol]
      Exch-Disp20                   0.51742761 [mEh]       0.32469073 [kcal/mol]       1.35850600 [kJ/mol]

  Total HF                       -106.82551245 [mEh]     -67.03402110 [kcal/mol]    -280.47034430 [kJ/mol]
  Total SAPT0                    -108.64440316 [mEh]     -68.17539226 [kcal/mol]    -285.24584121 [kJ/mol]
  Total SAPT2                    -102.06294328 [mEh]     -64.04546383 [kcal/mol]    -267.96622065 [kJ/mol]
  Total SAPT2+                   -102.47828501 [mEh]     -64.30609470 [kcal/mol]    -269.05670022 [kJ/mol]

  Special recipe for scaled SAPT0 (see Manual):
    Electrostatics sSAPT0        -117.00081607 [mEh]     -73.41912052 [kcal/mol]    -307.18560027 [kJ/mol]
    Exchange sSAPT0                35.61533015 [mEh]      22.34895708 [kcal/mol]      93.50803642 [kJ/mol]
    Induction sSAPT0              -25.30098931 [mEh]     -15.87661049 [kcal/mol]     -66.42773828 [kJ/mol]
    Dispersion sSAPT0              -1.81657386 [mEh]      -1.13991731 [kcal/mol]      -4.76941402 [kJ/mol]
  Total sSAPT0                   -108.50304909 [mEh]     -68.08669124 [kcal/mol]    -284.87471615 [kJ/mol]
  --------------------------------------------------------------------------------------------------------

*** Psi4 exiting successfully. Buy a developer a beer!
