                               Psi4 1.9 release

  ==> Input File <==

--------------------------------------------------------------------------
MEMORY 60 GB

molecule dimer {
1 1
Na     0.000000     0.000000     0.000000
--
0 1
O      1.870172    -0.000000    -1.173415
H      2.316655     0.760558    -1.552451
H      2.316655    -0.760558    -1.552451
O     -1.871411    -0.000000    -1.171436
H     -2.318235     0.760557    -1.550073
H     -2.318235    -0.760557    -1.550073
O      0.000572     1.870196     1.173356
H     -0.759836     2.316556     1.552839
H      0.761280     2.316751     1.552004
O      0.000572    -1.870196     1.173356
H     -0.759836    -2.316556     1.552839
H      0.761280    -2.316751     1.552004

units ang
no_reorient
no_com
symmetry c1
}

set {
basis        aug-cc-pVTZ
scf_type     df
}

energy("sapt2+")
--------------------------------------------------------------------------

  //              Dimer HF             //
    Molecular point group: c1
  Charge       = 1
  Multiplicity = 1
  Basis Set: AUG-CC-PVTZ
    Blend: AUG-CC-PVTZ
  Basis Set: (AUG-CC-PVTZ AUX)
    Blend: AUG-CC-PVTZ-JKFIT + DEF2-UNIVERSAL-JKFIT
  @DF-RHF Final Energy:  -466.03838938120958
    Total Energy =                       -466.0383893812095835
 Dipole X            :          0.0018928           -0.0019502           -0.0000574
 Dipole Y            :          0.0000000           -0.0000000            0.0000000
 Dipole Z            :         -0.0360810            0.0368988            0.0008178
 Magnitude           :                                                    0.0008198
  //            Monomer A HF           //
    Molecular point group: c1
  Multiplicity = 1
  Basis Set: AUG-CC-PVTZ
    Blend: AUG-CC-PVTZ
  Basis Set: (AUG-CC-PVTZ AUX)
    Blend: AUG-CC-PVTZ-JKFIT + DEF2-UNIVERSAL-JKFIT
  @DF-RHF Final Energy:  -161.67609090208808
    Total Energy =                       -161.6760909020880774
  //            Monomer B HF           //
    Molecular point group: c1

    Geometry (in Angstrom), charge = 0, multiplicity = 1:

       Center              X                  Y                   Z               Mass
    ------------   -----------------  -----------------  -----------------  -----------------
      Gh(NA)          0.000000000000     0.000000000000     0.000000000000    22.989769282000
         O            1.870172000000     0.000000000000    -1.173415000000    15.994914619570
         H            2.316655000000     0.760558000000    -1.552451000000     1.007825032230
         H            2.316655000000    -0.760558000000    -1.552451000000     1.007825032230
         O           -1.871411000000     0.000000000000    -1.171436000000    15.994914619570
         H           -2.318235000000     0.760557000000    -1.550073000000     1.007825032230
         H           -2.318235000000    -0.760557000000    -1.550073000000     1.007825032230
         O            0.000572000000     1.870196000000     1.173356000000    15.994914619570
         H           -0.759836000000     2.316556000000     1.552839000000     1.007825032230
         H            0.761280000000     2.316751000000     1.552004000000     1.007825032230
         O            0.000572000000    -1.870196000000     1.173356000000    15.994914619570
         H           -0.759836000000    -2.316556000000     1.552839000000     1.007825032230
         H            0.761280000000    -2.316751000000     1.552004000000     1.007825032230

  Charge       = 0
  Multiplicity = 1
  Basis Set: AUG-CC-PVTZ
    Blend: AUG-CC-PVTZ
  Basis Set: (AUG-CC-PVTZ AUX)
    Blend: AUG-CC-PVTZ-JKFIT + DEF2-UNIVERSAL-JKFIT

    Orbital Energies [Eh]
    ---------------------

    Doubly Occupied:

       1A    -20.536808     2A    -20.536807     3A    -20.536800
       4A    -20.536800     5A     -1.321741     6A     -1.320879
       7A     -1.320871     8A     -1.320611     9A     -0.687341
      10A     -0.686242    11A     -0.686236    12A     -0.684416
      13A     -0.558837    14A     -0.547376    15A     -0.547364
      16A     -0.544488    17A     -0.480837    18A     -0.479775
      19A     -0.476353    20A     -0.476339

  @DF-RHF Final Energy:  -304.22724213409788

   => Energetics <=

    Nuclear Repulsion Energy =            120.4473638289653934
    One-Electron Energy =                -660.7753713473264270
    Two-Electron Energy =                 236.1007653842630987
    Total Energy =                       -304.2272421340978781
 Dipole X            :          0.0019032           -0.0019502           -0.0000470
 Dipole Y            :          0.0000000           -0.0000000            0.0000000
 Dipole Z            :         -0.0363497            0.0368988            0.0005491
 Magnitude           :                                                    0.0005511

    SAPT Results
  --------------------------------------------------------------------------------------------------------
    Electrostatics               -140.35637058 [mEh]     -88.07495224 [kcal/mol]    -368.50560019 [kJ/mol]
      Elst10,r                   -149.66815857 [mEh]     -93.91818742 [kcal/mol]    -392.95369618 [kJ/mol]
      Elst12,r                      9.31178799 [mEh]       5.84323518 [kcal/mol]      24.44809599 [kJ/mol]

    Exchange                       51.53416488 [mEh]      32.33817669 [kcal/mol]     135.30293126 [kJ/mol]
      Exch10                       47.61564618 [mEh]      29.87926908 [kcal/mol]     125.01486181 [kJ/mol]
      Exch10(S^2)                  47.56078324 [mEh]      29.84484206 [kcal/mol]     124.87081919 [kJ/mol]
      Exch11(S^2)                  -0.95509989 [mEh]      -0.59933423 [kcal/mol]      -2.50761443 [kJ/mol]
      Exch12(S^2)                   4.87361860 [mEh]       3.05824184 [kcal/mol]      12.79568387 [kJ/mol]

    Induction                     -37.62230335 [mEh]     -23.60835178 [kcal/mol]     -98.77734385 [kJ/mol]
      Ind20,r                     -75.33860499 [mEh]     -47.27568838 [kcal/mol]    -197.80148016 [kJ/mol]
      Ind22                        -9.60838228 [mEh]      -6.02935091 [kcal/mol]     -25.22680421 [kJ/mol]
      Exch-Ind20,r                 39.12552238 [mEh]      24.55163596 [kcal/mol]     102.72404487 [kJ/mol]
      Exch-Ind22                    4.98991156 [mEh]       3.13121678 [kcal/mol]      13.10101100 [kJ/mol]
      delta HF,r (2)                3.20924998 [mEh]       2.01383476 [kcal/mol]       8.42588466 [kJ/mol]

    Dispersion                     -3.39732597 [mEh]      -2.13185423 [kcal/mol]      -8.91967812 [kJ/mol]
      Disp20                       -3.58563340 [mEh]      -2.25001893 [kcal/mol]      -9.41407919 [kJ/mol]
      Disp21                       -0.07363664 [mEh]      -0.04620769 [kcal/mol]      -0.19333298 [kJ/mol]
      Disp22 (SDQ)                 -0.20810229 [mEh]      -0.13058616 [kcal/mol]      -0.54637248 [kJ/mol]
      Disp22 (T)                   -0.29206455 [mEh]      -0.18327327 [kcal/mol]      -0.76681537 [kJ/mol]
      Est. Disp22 (T)              -0.33375856 [mEh]      -0.20943666 [kcal/mol]      -0.87628297 [kJ/mol]
      Exch-Disp20                   0.80380491 [mEh]       0.50439520 [kcal/mol]       2.11038951 [kJ/mol]

  Total HF                       -135.05634502 [mEh]     -84.74913600 [kcal/mol]    -354.59038501 [kJ/mol]
  Total SAPT0                    -137.83817351 [mEh]     -86.49475973 [kcal/mol]    -361.89407469 [kJ/mol]
  Total SAPT2                    -129.22633754 [mEh]     -81.09075107 [kcal/mol]    -339.28370246 [kJ/mol]
  Total SAPT2+                   -129.84183503 [mEh]     -81.47698157 [kcal/mol]    -340.89969089 [kJ/mol]

  Special recipe for scaled SAPT0 (see Manual):
    Electrostatics sSAPT0        -149.66815857 [mEh]     -93.91818742 [kcal/mol]    -392.95369618 [kJ/mol]
    Exchange sSAPT0                47.61564618 [mEh]      29.87926908 [kcal/mol]     125.01486181 [kJ/mol]
    Induction sSAPT0              -32.86827863 [mEh]     -20.62515623 [kcal/mol]     -86.29565367 [kJ/mol]
    Dispersion sSAPT0              -2.77904363 [mEh]      -1.74387621 [kcal/mol]      -7.29637804 [kJ/mol]
  Total sSAPT0                   -137.69983465 [mEh]     -86.40795078 [kcal/mol]    -361.53086607 [kJ/mol]
  --------------------------------------------------------------------------------------------------------

*** Psi4 exiting successfully. Buy a developer a beer!
