                               Psi4 1.9 release

  ==> Input File <==

--------------------------------------------------------------------------
MEMORY 60 GB

molecule dimer {
1 1
Na     0.000000     0.000000     0.000000
--
0 1
O      2.127279     0.958722    -0.303191
H      1.886144     1.856127    -0.045765
H      3.083807     0.914107    -0.236147
O     -0.290523     2.307019     0.013940
H     -0.650774     3.093413     0.429897
H     -0.441263     2.417497    -0.932218
O     -1.241008    -1.890537     0.130238
H     -1.265291    -2.158266     1.052897
H     -1.758627    -2.547849    -0.339374
O      0.035120    -0.485188     2.275872
H     -0.468697    -0.019297     2.947733
H      0.810529    -0.811250     2.739680
O      0.109375     0.709487    -2.223872
H     -0.208283     0.571183    -3.118810
H      1.061421     0.839555    -2.299444

units ang
no_reorient
no_com
symmetry c1
}

set {
basis        aug-cc-pVTZ
scf_type     df
}

energy("sapt2+")
--------------------------------------------------------------------------

  //              Dimer HF             //
    Molecular point group: c1
  Charge       = 1
  Multiplicity = 1
  Basis Set: AUG-CC-PVTZ
    Blend: AUG-CC-PVTZ
  Basis Set: (AUG-CC-PVTZ AUX)
    Blend: AUG-CC-PVTZ-JKFIT + DEF2-UNIVERSAL-JKFIT
  @DF-RHF Final Energy:  -542.11094371639251
    Total Energy =                       -542.1109437163925122
 Dipole X            :        -14.6214310           15.0628369            0.4414058
 Dipole Y            :        -31.2687765           32.0332086            0.7644322
 Dipole Z            :          1.5626394           -1.2427878            0.3198516
 Magnitude           :                                                    0.9388827
  //            Monomer A HF           //
    Molecular point group: c1
  Multiplicity = 1
  Basis Set: AUG-CC-PVTZ
    Blend: AUG-CC-PVTZ
  Basis Set: (AUG-CC-PVTZ AUX)
    Blend: AUG-CC-PVTZ-JKFIT + DEF2-UNIVERSAL-JKFIT
  @DF-RHF Final Energy:  -161.67609236944540
    Total Energy =                       -161.6760923694454277
  //            Monomer B HF           //
    Molecular point group: c1

    Geometry (in Angstrom), charge = 0, multiplicity = 1:

       Center              X                  Y                   Z               Mass
    ------------   -----------------  -----------------  -----------------  -----------------
      Gh(NA)          0.000000000000     0.000000000000     0.000000000000    22.989769282000
         O            2.127279000000     0.958722000000    -0.303191000000    15.994914619570
         H            1.886144000000     1.856127000000    -0.045765000000     1.007825032230
         H            3.083807000000     0.914107000000    -0.236147000000     1.007825032230
         O           -0.290523000000     2.307019000000     0.013940000000    15.994914619570
         H           -0.650774000000     3.093413000000     0.429897000000     1.007825032230
         H           -0.441263000000     2.417497000000    -0.932218000000     1.007825032230
         O           -1.241008000000    -1.890537000000     0.130238000000    15.994914619570
         H           -1.265291000000    -2.158266000000     1.052897000000     1.007825032230
         H           -1.758627000000    -2.547849000000    -0.339374000000     1.007825032230
         O            0.035120000000    -0.485188000000     2.275872000000    15.994914619570
         H           -0.468697000000    -0.019297000000     2.947733000000     1.007825032230
         H            0.810529000000    -0.811250000000     2.739680000000     1.007825032230
         O            0.109375000000     0.709487000000    -2.223872000000    15.994914619570
         H           -0.208283000000     0.571183000000    -3.118810000000     1.007825032230
         H            1.061421000000     0.839555000000    -2.299444000000     1.007825032230

  Charge       = 0
  Multiplicity = 1
  Basis Set: AUG-CC-PVTZ
    Blend: AUG-CC-PVTZ
  Basis Set: (AUG-CC-PVTZ AUX)
    Blend: AUG-CC-PVTZ-JKFIT + DEF2-UNIVERSAL-JKFIT

    Orbital Energies [Eh]
    ---------------------

    Doubly Occupied:

       1A    -20.542812     2A    -20.535422     3A    -20.535164
       4A    -20.534400     5A    -20.522055     6A     -1.328276
       7A     -1.327627     8A     -1.316603     9A     -1.316051
      10A     -1.305840    11A     -0.700221    12A     -0.691431
      13A     -0.683578    14A     -0.682993    15A     -0.674067
      16A     -0.559009    17A     -0.551873    18A     -0.547710
      19A     -0.546764    20A     -0.533037    21A     -0.486769
      22A     -0.479730    23A     -0.477953    24A     -0.477408
      25A     -0.464118

  @DF-RHF Final Energy:  -380.29186669700147

   => Energetics <=

    Nuclear Repulsion Energy =            194.2483538961551801
    One-Electron Energy =                -913.4386119225566745
    Two-Electron Energy =                 338.8983913293999990
    Total Energy =                       -380.2918666970014669
 Dipole X            :        -14.6955486           15.0628369            0.3672883
 Dipole Y            :        -31.4380843           32.0332086            0.5951243
 Dipole Z            :          1.5533246           -1.2427878            0.3105368
 Magnitude           :                                                    0.7651841

    SAPT Results
  --------------------------------------------------------------------------------------------------------
    Electrostatics               -132.71944053 [mEh]     -83.28270629 [kcal/mol]    -348.45484312 [kJ/mol]
      Elst10,r                   -142.29334506 [mEh]     -89.29042208 [kcal/mol]    -373.59112599 [kJ/mol]
      Elst12,r                      9.57390453 [mEh]       6.00771579 [kcal/mol]      25.13628288 [kJ/mol]

    Exchange                       37.85838616 [mEh]      23.75649598 [kcal/mol]      99.39717916 [kJ/mol]
      Exch10                       34.16560791 [mEh]      21.43924264 [kcal/mol]      89.70179121 [kJ/mol]
      Exch10(S^2)                  34.13254616 [mEh]      21.41849608 [kcal/mol]      89.61498761 [kJ/mol]
      Exch11(S^2)                  -0.78327673 [mEh]      -0.49151357 [kcal/mol]      -2.05649277 [kJ/mol]
      Exch12(S^2)                   4.47605498 [mEh]       2.80876690 [kcal/mol]      11.75188073 [kJ/mol]

    Induction                     -40.10095337 [mEh]     -25.16372814 [kcal/mol]    -105.28503856 [kJ/mol]
      Ind20,r                     -65.19894513 [mEh]     -40.91295575 [kcal/mol]    -171.17980686 [kJ/mol]
      Ind22                        -9.25169412 [mEh]      -5.80552571 [kcal/mol]     -24.29031957 [kJ/mol]
      Exch-Ind20,r                 28.24291209 [mEh]      17.72269490 [kcal/mol]      74.15175548 [kJ/mol]
      Exch-Ind22                    4.00765355 [mEh]       2.51484057 [kcal/mol]      10.52209294 [kJ/mol]
      delta HF,r (2)                2.09912025 [mEh]       1.31721784 [kcal/mol]       5.51123946 [kJ/mol]

    Dispersion                     -3.41049533 [mEh]      -2.14011813 [kcal/mol]      -8.95425425 [kJ/mol]
      Disp20                       -3.41570080 [mEh]      -2.14338461 [kcal/mol]      -8.96792121 [kJ/mol]
      Disp21                       -0.05049616 [mEh]      -0.03168682 [kcal/mol]      -0.13257765 [kJ/mol]
      Disp22 (SDQ)                 -0.22108099 [mEh]      -0.13873042 [kcal/mol]      -0.58044807 [kJ/mol]
      Disp22 (T)                   -0.29536422 [mEh]      -0.18534385 [kcal/mol]      -0.77547865 [kJ/mol]
      Est. Disp22 (T)              -0.33826963 [mEh]      -0.21226740 [kcal/mol]      -0.88812679 [kJ/mol]
      Exch-Disp20                   0.61505225 [mEh]       0.38595112 [kcal/mol]       1.61481947 [kJ/mol]

  Total HF                       -142.98464995 [mEh]     -89.72422245 [kcal/mol]    -375.40614671 [kJ/mol]
  Total SAPT0                    -145.78529849 [mEh]     -91.48165594 [kcal/mol]    -382.75924845 [kJ/mol]
  Total SAPT2                    -137.76265629 [mEh]     -86.44737195 [kcal/mol]    -361.69580425 [kJ/mol]
  Total SAPT2+                   -138.37250307 [mEh]     -86.83005659 [kcal/mol]    -363.29695676 [kJ/mol]

  Special recipe for scaled SAPT0 (see Manual):
    Electrostatics sSAPT0        -142.29334506 [mEh]     -89.29042208 [kcal/mol]    -373.59112599 [kJ/mol]
    Exchange sSAPT0                34.16560791 [mEh]      21.43924264 [kcal/mol]      89.70179121 [kJ/mol]
    Induction sSAPT0              -34.77476263 [mEh]     -21.82149300 [kcal/mol]     -91.30112671 [kJ/mol]
    Dispersion sSAPT0              -2.79885954 [mEh]      -1.75631088 [kcal/mol]      -7.34840471 [kJ/mol]
  Total sSAPT0                   -145.70135933 [mEh]     -91.42898332 [kcal/mol]    -382.53886621 [kJ/mol]
  --------------------------------------------------------------------------------------------------------

*** Psi4 exiting successfully. Buy a developer a beer!
