                               Psi4 1.9 release

  ==> Input File <==

--------------------------------------------------------------------------
MEMORY 60 GB

molecule dimer {
1 1
K      0.000000     0.000000     0.000000
--
0 1
O      2.554119    -0.000000     0.000000
H      3.147554     0.755364     0.000000
H      3.147554    -0.755364     0.000000
O     -1.277059     2.211932     0.000000
H     -2.227941     2.348180     0.000000
H     -0.919613     3.103544     0.000000
O     -1.277059    -2.211932     0.000000
H     -0.919613    -3.103544     0.000000
H     -2.227941    -2.348180     0.000000

units ang
no_reorient
no_com
symmetry c1
}

set {
basis        aug-cc-pVTZ
scf_type     df
}

energy("sapt2+")
--------------------------------------------------------------------------

  //              Dimer HF             //
    Molecular point group: c1
  Charge       = 1
  Multiplicity = 1
  Basis Set: AUG-CC-PVTZ
    Blend: AUG-CC-PVTZ
  Basis Set: (AUG-CC-PVTZ AUX)
    Blend: AUG-CC-PVTZ-JKFIT + DEF2-UNIVERSAL-JKFIT
  @DF-RHF Final Energy:  -827.26650539410355
    Total Energy =                       -827.2665053941035467
 Dipole X            :         -0.0000161            0.0000151           -0.0000010
 Dipole Y            :          0.0000000           -0.0000000            0.0000000
 Dipole Z            :         -0.0000000            0.0000000           -0.0000000
 Magnitude           :                                                    0.0000010
  //            Monomer A HF           //
    Molecular point group: c1
  Multiplicity = 1
  Basis Set: AUG-CC-PVTZ
    Blend: AUG-CC-PVTZ
  Basis Set: (AUG-CC-PVTZ AUX)
    Blend: AUG-CC-PVTZ-JKFIT + DEF2-UNIVERSAL-JKFIT
  @DF-RHF Final Energy:  -599.01751296622376
    Total Energy =                       -599.0175129662237623
  //            Monomer B HF           //
    Molecular point group: c1

    Geometry (in Angstrom), charge = 0, multiplicity = 1:

       Center              X                  Y                   Z               Mass
    ------------   -----------------  -----------------  -----------------  -----------------
      Gh(K)           0.000000000000     0.000000000000     0.000000000000    38.963706486400
         O            2.554119000000     0.000000000000     0.000000000000    15.994914619570
         H            3.147554000000     0.755364000000     0.000000000000     1.007825032230
         H            3.147554000000    -0.755364000000     0.000000000000     1.007825032230
         O           -1.277059000000     2.211932000000     0.000000000000    15.994914619570
         H           -2.227941000000     2.348180000000     0.000000000000     1.007825032230
         H           -0.919613000000     3.103544000000     0.000000000000     1.007825032230
         O           -1.277059000000    -2.211932000000     0.000000000000    15.994914619570
         H           -0.919613000000    -3.103544000000     0.000000000000     1.007825032230
         H           -2.227941000000    -2.348180000000     0.000000000000     1.007825032230

  Charge       = 0
  Multiplicity = 1
  Basis Set: AUG-CC-PVTZ
    Blend: AUG-CC-PVTZ
  Basis Set: (AUG-CC-PVTZ AUX)
    Blend: AUG-CC-PVTZ-JKFIT + DEF2-UNIVERSAL-JKFIT

    Orbital Energies [Eh]
    ---------------------

    Doubly Occupied:

       1A    -20.553047     2A    -20.553047     3A    -20.553047
       4A     -1.337258     5A     -1.337186     6A     -1.337185
       7A     -0.699346     8A     -0.699346     9A     -0.699008
      10A     -0.570621    11A     -0.568485    12A     -0.568485
      13A     -0.495007    14A     -0.494568    15A     -0.494568

  @DF-RHF Final Energy:  -228.17617340111167

   => Energetics <=

    Nuclear Repulsion Energy =             61.8409617940628493
    One-Electron Energy =                -438.1138603521687855
    Two-Electron Energy =                 148.0967251569942391
    Total Energy =                       -228.1761734011116687
 Dipole X            :         -0.0000162            0.0000151           -0.0000011
 Dipole Y            :         -0.0000000           -0.0000000           -0.0000000
 Dipole Z            :         -0.0000000            0.0000000           -0.0000000
 Magnitude           :                                                    0.0000011

    SAPT Results
  --------------------------------------------------------------------------------------------------------
    Electrostatics                -92.98173838 [mEh]     -58.34692172 [kcal/mol]    -244.12352048 [kJ/mol]
      Elst10,r                    -97.43202174 [mEh]     -61.13951669 [kcal/mol]    -255.80773782 [kJ/mol]
      Elst12,r                      4.45028336 [mEh]       2.79259497 [kcal/mol]      11.68421735 [kJ/mol]

    Exchange                       46.80453355 [mEh]      29.37028822 [kcal/mol]     122.88528592 [kJ/mol]
      Exch10                       43.33008682 [mEh]      27.19003998 [kcal/mol]     113.76312727 [kJ/mol]
      Exch10(S^2)                  43.18663168 [mEh]      27.10002052 [kcal/mol]     113.38648586 [kJ/mol]
      Exch11(S^2)                  -0.07042199 [mEh]      -0.04419047 [kcal/mol]      -0.18489291 [kJ/mol]
      Exch12(S^2)                   3.54486873 [mEh]       2.22443871 [kcal/mol]       9.30705156 [kJ/mol]

    Induction                     -21.34004259 [mEh]     -13.39107890 [kcal/mol]     -56.02827411 [kJ/mol]
      Ind20,r                     -48.61760233 [mEh]     -30.50800605 [kcal/mol]    -127.64549733 [kJ/mol]
      Ind22                        -7.16877268 [mEh]      -4.49847277 [kcal/mol]     -18.82161009 [kJ/mol]
      Exch-Ind20,r                 30.82912143 [mEh]      19.34556577 [kcal/mol]      80.94184716 [kJ/mol]
      Exch-Ind22                    4.54582195 [mEh]       2.85254634 [kcal/mol]      11.93505387 [kJ/mol]
      delta HF,r (2)               -0.92861096 [mEh]      -0.58271217 [kcal/mol]      -2.43806773 [kJ/mol]

    Dispersion                     -8.47264765 [mEh]      -5.31666667 [kcal/mol]     -22.24493335 [kJ/mol]
      Disp20                      -10.27150672 [mEh]      -6.44546778 [kcal/mol]     -26.96783719 [kJ/mol]
      Disp21                        1.33278655 [mEh]       0.83633619 [kcal/mol]       3.49923061 [kJ/mol]
      Disp22 (SDQ)                 -0.05677155 [mEh]      -0.03562468 [kcal/mol]      -0.14905367 [kJ/mol]
      Disp22 (T)                   -0.98066898 [mEh]      -0.61537908 [kcal/mol]      -2.57474605 [kJ/mol]
      Est. Disp22 (T)              -1.08186427 [mEh]      -0.67888008 [kcal/mol]      -2.84043424 [kJ/mol]
      Exch-Disp20                   1.60470833 [mEh]       1.00696968 [kcal/mol]       4.21316114 [kJ/mol]

  Total HF                        -72.81902677 [mEh]     -45.69462917 [kcal/mol]    -191.18632844 [kJ/mol]
  Total SAPT0                     -81.48582516 [mEh]     -51.13312727 [kcal/mol]    -213.94100449 [kJ/mol]
  Total SAPT2                     -76.18404581 [mEh]     -47.80621050 [kcal/mol]    -200.02118471 [kJ/mol]
  Total SAPT2+                    -75.98989507 [mEh]     -47.68437907 [kcal/mol]    -199.51144202 [kJ/mol]

  Special recipe for scaled SAPT0 (see Manual):
    Electrostatics sSAPT0         -97.43202174 [mEh]     -61.13951669 [kcal/mol]    -255.80773782 [kJ/mol]
    Exchange sSAPT0                43.33008682 [mEh]      27.19003998 [kcal/mol]     113.76312727 [kJ/mol]
    Induction sSAPT0              -18.40885043 [mEh]     -11.55172805 [kcal/mol]     -48.33243015 [kJ/mol]
    Dispersion sSAPT0              -8.65075390 [mEh]      -5.42843003 [kcal/mol]     -22.71255124 [kJ/mol]
  Total sSAPT0                    -81.16153925 [mEh]     -50.92963478 [kcal/mol]    -213.08959194 [kJ/mol]
  --------------------------------------------------------------------------------------------------------

*** Psi4 exiting successfully. Buy a developer a beer!
