                               Psi4 1.9 release

  ==> Input File <==

--------------------------------------------------------------------------
MEMORY 60 GB

molecule dimer {
1 1
K      0.000000     0.000000     0.000000
--
0 1
O      2.654630     0.002171     0.000579
H      3.250531     0.754762     0.000935
H      3.242121    -0.756990     0.000312
O     -0.007276     2.651700     0.006090
H     -0.758553     3.248594     0.007697
H      0.751349     3.239242     0.007596
O     -2.653913     0.004803    -0.000991
H     -3.249100    -0.748349    -0.001455
H     -3.242057     0.763455    -0.000838
O      0.005359    -2.651635    -0.007866
H      0.759550    -3.244853    -0.009743
H     -0.750301    -3.243005    -0.009704
O      0.002441    -0.005300     2.618395
H     -0.755182    -0.005025     3.207306
H      0.760169    -0.008050     3.207160
O      0.001289     0.006833    -2.618434
H     -0.756859     0.009596    -3.206659
H      0.758499     0.006565    -3.207873

units ang
no_reorient
no_com
symmetry c1
}

set {
basis        aug-cc-pVTZ
scf_type     df
}

energy("sapt2+")
--------------------------------------------------------------------------

  //              Dimer HF             //
    Molecular point group: c1
  Charge       = 1
  Multiplicity = 1
  Basis Set: AUG-CC-PVTZ
    Blend: AUG-CC-PVTZ
  Basis Set: (AUG-CC-PVTZ AUX)
    Blend: AUG-CC-PVTZ-JKFIT + DEF2-UNIVERSAL-JKFIT
  @DF-RHF Final Energy: -1055.48504276643143
    Total Energy =                      -1055.4850427664314338
 Dipole X            :         -0.0542165            0.0574609            0.0032444
 Dipole Y            :         -0.1597532            0.1597159           -0.0000374
 Dipole Z            :          0.0429211           -0.0436187           -0.0006975
 Magnitude           :                                                    0.0033187
  //            Monomer A HF           //
    Molecular point group: c1
  Multiplicity = 1
  Basis Set: AUG-CC-PVTZ
    Blend: AUG-CC-PVTZ
  Basis Set: (AUG-CC-PVTZ AUX)
    Blend: AUG-CC-PVTZ-JKFIT + DEF2-UNIVERSAL-JKFIT
  @DF-RHF Final Energy:  -599.01751768064082
    Total Energy =                       -599.0175176806408217
  //            Monomer B HF           //
    Molecular point group: c1

    Geometry (in Angstrom), charge = 0, multiplicity = 1:

       Center              X                  Y                   Z               Mass
    ------------   -----------------  -----------------  -----------------  -----------------
      Gh(K)           0.000000000000     0.000000000000     0.000000000000    38.963706486400
         O            2.654630000000     0.002171000000     0.000579000000    15.994914619570
         H            3.250531000000     0.754762000000     0.000935000000     1.007825032230
         H            3.242121000000    -0.756990000000     0.000312000000     1.007825032230
         O           -0.007276000000     2.651700000000     0.006090000000    15.994914619570
         H           -0.758553000000     3.248594000000     0.007697000000     1.007825032230
         H            0.751349000000     3.239242000000     0.007596000000     1.007825032230
         O           -2.653913000000     0.004803000000    -0.000991000000    15.994914619570
         H           -3.249100000000    -0.748349000000    -0.001455000000     1.007825032230
         H           -3.242057000000     0.763455000000    -0.000838000000     1.007825032230
         O            0.005359000000    -2.651635000000    -0.007866000000    15.994914619570
         H            0.759550000000    -3.244853000000    -0.009743000000     1.007825032230
         H           -0.750301000000    -3.243005000000    -0.009704000000     1.007825032230
         O            0.002441000000    -0.005300000000     2.618395000000    15.994914619570
         H           -0.755182000000    -0.005025000000     3.207306000000     1.007825032230
         H            0.760169000000    -0.008050000000     3.207160000000     1.007825032230
         O            0.001289000000     0.006833000000    -2.618434000000    15.994914619570
         H           -0.756859000000     0.009596000000    -3.206659000000     1.007825032230
         H            0.758499000000     0.006565000000    -3.207873000000     1.007825032230

  Charge       = 0
  Multiplicity = 1
  Basis Set: AUG-CC-PVTZ
    Blend: AUG-CC-PVTZ
  Basis Set: (AUG-CC-PVTZ AUX)
    Blend: AUG-CC-PVTZ-JKFIT + DEF2-UNIVERSAL-JKFIT

    Orbital Energies [Eh]
    ---------------------

    Doubly Occupied:

       1A    -20.535681     2A    -20.535582     3A    -20.528788
       4A    -20.528687     5A    -20.521540     6A    -20.521526
       7A     -1.319987     8A     -1.319882     9A     -1.313483
      10A     -1.313383    11A     -1.305895    12A     -1.305870
      13A     -0.683190    14A     -0.682606    15A     -0.676147
      16A     -0.675474    17A     -0.669534    18A     -0.669515
      19A     -0.551991    20A     -0.548506    21A     -0.542251
      22A     -0.541085    23A     -0.534411    24A     -0.532222
      25A     -0.476696    26A     -0.476591    27A     -0.471908
      28A     -0.469308    29A     -0.462410    30A     -0.460146

  @DF-RHF Final Energy:  -456.33301409707866

   => Energetics <=

    Nuclear Repulsion Energy =            246.4907230048210636
    One-Electron Energy =               -1123.2988720322209701
    Two-Electron Energy =                 420.4751349303211896
    Total Energy =                       -456.3330140970786601
 Dipole X            :         -0.0542236            0.0574609            0.0032373
 Dipole Y            :         -0.1607237            0.1597159           -0.0010078
 Dipole Z            :          0.0431464           -0.0436187           -0.0004723
 Magnitude           :                                                    0.0034233

    SAPT Results
  --------------------------------------------------------------------------------------------------------
    Electrostatics               -151.08188114 [mEh]     -94.80531173 [kcal/mol]    -396.66542428 [kJ/mol]
      Elst10,r                   -160.66208195 [mEh]    -100.81697850 [kcal/mol]    -421.81823805 [kJ/mol]
      Elst12,r                      9.58020081 [mEh]       6.01166677 [kcal/mol]      25.15281377 [kJ/mol]

    Exchange                       60.16282420 [mEh]      37.75274215 [kcal/mol]     157.95747317 [kJ/mol]
      Exch10                       55.76350324 [mEh]      34.99212657 [kcal/mol]     146.40705758 [kJ/mol]
      Exch10(S^2)                  55.64663512 [mEh]      34.91879072 [kcal/mol]     146.10022037 [kJ/mol]
      Exch11(S^2)                  -0.54839903 [mEh]      -0.34412558 [kcal/mol]      -1.43982145 [kJ/mol]
      Exch12(S^2)                   4.94771999 [mEh]       3.10474116 [kcal/mol]      12.99023703 [kJ/mol]

    Induction                     -34.00891823 [mEh]     -21.34091839 [kcal/mol]     -89.29040252 [kJ/mol]
      Ind20,r                     -62.46420398 [mEh]     -39.19687977 [kcal/mol]    -163.99974496 [kJ/mol]
      Ind22                        -9.74095576 [mEh]      -6.11254202 [kcal/mol]     -25.57487583 [kJ/mol]
      Exch-Ind20,r                 34.27144815 [mEh]      21.50565840 [kcal/mol]      89.97967473 [kJ/mol]
      Exch-Ind22                    5.34444753 [mEh]       3.35369145 [kcal/mol]      14.03184504 [kJ/mol]
      delta HF,r (2)               -1.41965417 [mEh]      -0.89084644 [kcal/mol]      -3.72730151 [kJ/mol]

    Dispersion                    -13.97596666 [mEh]      -8.77005148 [kcal/mol]     -36.69389540 [kJ/mol]
      Disp20                      -16.84816432 [mEh]     -10.57238272 [kcal/mol]     -44.23484932 [kJ/mol]
      Disp21                        2.55620693 [mEh]       1.60404406 [kcal/mol]       6.71132036 [kJ/mol]
      Disp22 (SDQ)                 -0.16933666 [mEh]      -0.10626036 [kcal/mol]      -0.44459333 [kJ/mol]
      Disp22 (T)                   -1.72234238 [mEh]      -1.08078616 [kcal/mol]      -4.52200930 [kJ/mol]
      Est. Disp22 (T)              -1.86262294 [mEh]      -1.16881354 [kcal/mol]      -4.89031587 [kJ/mol]
      Exch-Disp20                   2.34795034 [mEh]       1.47336108 [kcal/mol]       6.16454276 [kJ/mol]

  Total HF                       -134.51098871 [mEh]     -84.40691974 [kcal/mol]    -353.15855221 [kJ/mol]
  Total SAPT0                    -149.01120269 [mEh]     -93.50594139 [kcal/mol]    -391.22885877 [kJ/mol]
  Total SAPT2                    -139.42818916 [mEh]     -87.49250961 [kcal/mol]    -366.06866020 [kJ/mol]
  Total SAPT2+                   -138.90394183 [mEh]     -87.16353944 [kcal/mol]    -364.69224904 [kJ/mol]

  Special recipe for scaled SAPT0 (see Manual):
    Electrostatics sSAPT0        -160.66208195 [mEh]    -100.81697850 [kcal/mol]    -421.81823805 [kJ/mol]
    Exchange sSAPT0                55.76350324 [mEh]      34.99212657 [kcal/mol]     146.40705758 [kJ/mol]
    Induction sSAPT0              -29.39602724 [mEh]     -18.44628559 [kcal/mol]     -77.17925890 [kJ/mol]
    Dispersion sSAPT0             -14.48538951 [mEh]      -9.08971915 [kcal/mol]     -38.03138492 [kJ/mol]
  Total sSAPT0                   -148.77999547 [mEh]     -93.36085667 [kcal/mol]    -390.62182429 [kJ/mol]
  --------------------------------------------------------------------------------------------------------

*** Psi4 exiting successfully. Buy a developer a beer!
