                               Psi4 1.9 release

  ==> Input File <==

--------------------------------------------------------------------------
MEMORY 60 GB

molecule dimer {
-1 1
F      0.000000     0.000000     0.000000
--
0 1
O      2.567370    -0.022237     0.000450
H      1.570237    -0.051088     0.000135
H      2.745287     0.918427     0.000641
O     -1.266676     2.233096     0.000390
H     -0.742110     1.384616     0.000221
H     -2.169908     1.915777     0.000517
O     -1.297827    -2.215389     0.000764
H     -0.826560    -1.336207    -0.000029
H     -0.570574    -2.837902     0.010786

units ang
no_reorient
no_com
symmetry c1
}

set {
basis        aug-cc-pVTZ
scf_type     df
}

energy("sapt2+")
--------------------------------------------------------------------------

  //              Dimer HF             //
    Molecular point group: c1
  Charge       = -1
  Multiplicity = 1
  Basis Set: AUG-CC-PVTZ
    Blend: AUG-CC-PVTZ
  Basis Set: (AUG-CC-PVTZ AUX)
    Blend: AUG-CC-PVTZ-JKFIT
  @DF-RHF Final Energy:  -327.72424225953620
    Total Energy =                       -327.7242422595361973
 Dipole X            :         -0.0556053            0.0553841           -0.0002212
 Dipole Y            :          0.0830259           -0.0805345            0.0024915
 Dipole Z            :         -0.0424273            0.0474378            0.0050105
 Magnitude           :                                                    0.0056002
  //            Monomer A HF           //
    Molecular point group: c1
  Multiplicity = 1
  Basis Set: AUG-CC-PVTZ
    Blend: AUG-CC-PVTZ
  Basis Set: (AUG-CC-PVTZ AUX)
    Blend: AUG-CC-PVTZ-JKFIT
  @DF-RHF Final Energy:   -99.45104947402858
    Total Energy =                        -99.4510494740285651
  //            Monomer B HF           //
    Molecular point group: c1

    Geometry (in Angstrom), charge = 0, multiplicity = 1:

       Center              X                  Y                   Z               Mass
    ------------   -----------------  -----------------  -----------------  -----------------
      Gh(F)           0.000000000000     0.000000000000     0.000000000000    18.998403162730
         O            2.567370000000    -0.022237000000     0.000450000000    15.994914619570
         H            1.570237000000    -0.051088000000     0.000135000000     1.007825032230
         H            2.745287000000     0.918427000000     0.000641000000     1.007825032230
         O           -1.266676000000     2.233096000000     0.000390000000    15.994914619570
         H           -0.742110000000     1.384616000000     0.000221000000     1.007825032230
         H           -2.169908000000     1.915777000000     0.000517000000     1.007825032230
         O           -1.297827000000    -2.215389000000     0.000764000000    15.994914619570
         H           -0.826560000000    -1.336207000000    -0.000029000000     1.007825032230
         H           -0.570574000000    -2.837902000000     0.010786000000     1.007825032230

  Charge       = 0
  Multiplicity = 1
  Basis Set: AUG-CC-PVTZ
    Blend: AUG-CC-PVTZ
  Basis Set: (AUG-CC-PVTZ AUX)
    Blend: AUG-CC-PVTZ-JKFIT

    Orbital Energies [Eh]
    ---------------------

    Doubly Occupied:

       1A    -20.588781     2A    -20.588765     3A    -20.588747
       4A     -1.362369     5A     -1.361863     6A     -1.361847
       7A     -0.722919     8A     -0.718936     9A     -0.718922
      10A     -0.603576    11A     -0.600416    12A     -0.600396
      13A     -0.526555    14A     -0.525656    15A     -0.525638

  @DF-RHF Final Energy:  -228.16821956071772

   => Energetics <=

    Nuclear Repulsion Energy =             64.1261008820715404
    One-Electron Energy =                -441.7978667878854253
    Two-Electron Energy =                 149.5035463450961970
    Total Energy =                       -228.1682195607177164
 Dipole X            :         -0.0548146            0.0553841            0.0005695
 Dipole Y            :          0.0822220           -0.0805345            0.0016875
 Dipole Z            :         -0.0414696            0.0474378            0.0059682
 Magnitude           :                                                    0.0062282

    SAPT Results
  --------------------------------------------------------------------------------------------------------
    Electrostatics               -157.30545005 [mEh]     -98.71066019 [kcal/mol]    -413.00540222 [kJ/mol]
      Elst10,r                   -156.37162744 [mEh]     -98.12467765 [kcal/mol]    -410.55365127 [kJ/mol]
      Elst12,r                     -0.93382262 [mEh]      -0.58598254 [kcal/mol]      -2.45175094 [kJ/mol]

    Exchange                      140.12280564 [mEh]      87.92838803 [kcal/mol]     367.89237551 [kJ/mol]
      Exch10                      112.23028888 [mEh]      70.42556952 [kcal/mol]     294.66058286 [kJ/mol]
      Exch10(S^2)                 112.62064764 [mEh]      70.67052334 [kcal/mol]     295.68546965 [kJ/mol]
      Exch11(S^2)                   1.63163916 [mEh]       1.02386903 [kcal/mol]       4.28386803 [kJ/mol]
      Exch12(S^2)                  26.26087759 [mEh]      16.47894948 [kcal/mol]      68.94792462 [kJ/mol]

    Induction                     -70.64082240 [mEh]     -44.32778529 [kcal/mol]    -185.46745367 [kJ/mol]
      Ind20,r                     -80.85340288 [mEh]     -50.73627630 [kcal/mol]    -212.28058003 [kJ/mol]
      Ind22                       -17.02757862 [mEh]     -10.68496690 [kcal/mol]     -44.70590150 [kJ/mol]
      Exch-Ind20,r                 34.27685282 [mEh]      21.50904987 [kcal/mol]      89.99386468 [kJ/mol]
      Exch-Ind22                    7.21864245 [mEh]       4.52976652 [kcal/mol]      18.95254314 [kJ/mol]
      delta HF,r (2)              -14.25533617 [mEh]      -8.94535850 [kcal/mol]     -37.42737996 [kJ/mol]

    Dispersion                    -30.59775205 [mEh]     -19.20037929 [kcal/mol]     -80.33438694 [kJ/mol]
      Disp20                      -31.79684511 [mEh]     -19.95282155 [kcal/mol]     -83.48260535 [kJ/mol]
      Disp21                        1.19710212 [mEh]       0.75119292 [kcal/mol]       3.14299119 [kJ/mol]
      Disp22 (SDQ)                 -3.33683146 [mEh]      -2.09389335 [kcal/mol]      -8.76084979 [kJ/mol]
      Disp22 (T)                   -5.63683812 [mEh]      -3.53716932 [kcal/mol]     -14.79951644 [kJ/mol]
      Est. Disp22 (T)              -6.49024538 [mEh]      -4.07269046 [kcal/mol]     -17.04013690 [kJ/mol]
      Exch-Disp20                   9.82906778 [mEh]       6.16783315 [kcal/mol]      25.80621391 [kJ/mol]

  Total HF                       -104.97322479 [mEh]     -65.87169305 [kcal/mol]    -275.60716372 [kJ/mol]
  Total SAPT0                    -126.94100212 [mEh]     -79.65668144 [kcal/mol]    -333.28355515 [kJ/mol]
  Total SAPT2                    -109.79124416 [mEh]     -68.89504585 [kcal/mol]    -288.25687182 [kJ/mol]
  Total SAPT2+                   -118.42121887 [mEh]     -74.31043674 [kcal/mol]    -310.91486732 [kJ/mol]

  Special recipe for scaled SAPT0 (see Manual):
    Electrostatics sSAPT0        -156.37162744 [mEh]     -98.12467765 [kcal/mol]    -410.55365127 [kJ/mol]
    Exchange sSAPT0               112.23028888 [mEh]      70.42556952 [kcal/mol]     294.66058286 [kJ/mol]
    Induction sSAPT0              -61.18707720 [mEh]     -38.39547062 [kcal/mol]    -160.64664906 [kJ/mol]
    Dispersion sSAPT0             -22.06963021 [mEh]     -13.84890204 [kcal/mol]     -57.94380613 [kJ/mol]
  Total sSAPT0                   -127.39804597 [mEh]     -79.94348078 [kcal/mol]    -334.48352360 [kJ/mol]
  --------------------------------------------------------------------------------------------------------

*** Psi4 exiting successfully. Buy a developer a beer!
