                               Psi4 1.9 release

  ==> Input File <==

--------------------------------------------------------------------------
MEMORY 60 GB

molecule dimer {
-1 1
F      0.000000     0.000000     0.000000
--
0 1
O      2.615040     0.830855    -0.306548
H      1.779183     0.354941    -0.172646
H      2.290422     1.727088    -0.437083
O      0.173453     2.717899    -0.376765
H      0.091851     1.810760    -0.035543
H     -0.211367     2.609582    -1.253149
O     -2.664729    -0.415500    -0.147684
H     -1.741393    -0.110673    -0.063872
H     -2.520127    -1.364697    -0.235724
O     -0.665239    -2.671544     0.084735
H     -0.273898    -1.812643    -0.151117
H     -0.743278    -2.563566     1.039506
O     -0.855421    -0.807340     2.436516
H     -0.394648    -0.437707     1.658496
H     -1.773466    -0.627104     2.215378
O     -0.924112     0.790296    -2.457210
H     -0.429820     0.436903    -1.696363
H     -1.826383     0.561602    -2.213630

units ang
no_reorient
no_com
symmetry c1
}

set {
basis        aug-cc-pVTZ
scf_type     df
}

energy("sapt2+")
--------------------------------------------------------------------------

  //              Dimer HF             //
    Molecular point group: c1
  Charge       = -1
  Multiplicity = 1
  Basis Set: AUG-CC-PVTZ
    Blend: AUG-CC-PVTZ
  Basis Set: (AUG-CC-PVTZ AUX)
    Blend: AUG-CC-PVTZ-JKFIT
  @DF-RHF Final Energy:  -555.95439431627744
    Total Energy =                       -555.9543943162774440
 Dipole X            :         45.4598559          -45.9600064           -0.5001506
 Dipole Y            :         -8.1089864            7.8268941           -0.2820923
 Dipole Z            :         14.3435511          -14.1377876            0.2057635
 Magnitude           :                                                    0.6099715
  //            Monomer A HF           //
    Molecular point group: c1
  Multiplicity = 1
  Basis Set: AUG-CC-PVTZ
    Blend: AUG-CC-PVTZ
  Basis Set: (AUG-CC-PVTZ AUX)
    Blend: AUG-CC-PVTZ-JKFIT
  @DF-RHF Final Energy:   -99.45118244430273
    Total Energy =                        -99.4511824443027308
  //            Monomer B HF           //
    Molecular point group: c1

    Geometry (in Angstrom), charge = 0, multiplicity = 1:

       Center              X                  Y                   Z               Mass
    ------------   -----------------  -----------------  -----------------  -----------------
      Gh(F)           0.000000000000     0.000000000000     0.000000000000    18.998403162730
         O            2.615040000000     0.830855000000    -0.306548000000    15.994914619570
         H            1.779183000000     0.354941000000    -0.172646000000     1.007825032230
         H            2.290422000000     1.727088000000    -0.437083000000     1.007825032230
         O            0.173453000000     2.717899000000    -0.376765000000    15.994914619570
         H            0.091851000000     1.810760000000    -0.035543000000     1.007825032230
         H           -0.211367000000     2.609582000000    -1.253149000000     1.007825032230
         O           -2.664729000000    -0.415500000000    -0.147684000000    15.994914619570
         H           -1.741393000000    -0.110673000000    -0.063872000000     1.007825032230
         H           -2.520127000000    -1.364697000000    -0.235724000000     1.007825032230
         O           -0.665239000000    -2.671544000000     0.084735000000    15.994914619570
         H           -0.273898000000    -1.812643000000    -0.151117000000     1.007825032230
         H           -0.743278000000    -2.563566000000     1.039506000000     1.007825032230
         O           -0.855421000000    -0.807340000000     2.436516000000    15.994914619570
         H           -0.394648000000    -0.437707000000     1.658496000000     1.007825032230
         H           -1.773466000000    -0.627104000000     2.215378000000     1.007825032230
         O           -0.924112000000     0.790296000000    -2.457210000000    15.994914619570
         H           -0.429820000000     0.436903000000    -1.696363000000     1.007825032230
         H           -1.826383000000     0.561602000000    -2.213630000000     1.007825032230

  Charge       = 0
  Multiplicity = 1
  Basis Set: AUG-CC-PVTZ
    Blend: AUG-CC-PVTZ
  Basis Set: (AUG-CC-PVTZ AUX)
    Blend: AUG-CC-PVTZ-JKFIT

    Orbital Energies [Eh]
    ---------------------

    Doubly Occupied:

       1A    -20.620662     2A    -20.617473     3A    -20.611883
       4A    -20.609506     5A    -20.602782     6A    -20.587503
       7A     -1.409208     8A     -1.399204     9A     -1.394809
      10A     -1.389817    11A     -1.384826    12A     -1.368682
      13A     -0.758847    14A     -0.752869    15A     -0.750520
      16A     -0.744198    17A     -0.739372    18A     -0.723391
      19A     -0.655210    20A     -0.639322    21A     -0.633031
      22A     -0.630103    23A     -0.626899    24A     -0.610891
      25A     -0.561939    26A     -0.554356    27A     -0.550291
      28A     -0.547361    29A     -0.541396    30A     -0.527588

  @DF-RHF Final Energy:  -456.33615198071789

   => Energetics <=

    Nuclear Repulsion Energy =            267.0362235545580916
    One-Electron Energy =               -1159.6568704646474544
    Two-Electron Energy =                 436.2844949293714762
    Total Energy =                       -456.3361519807178865
 Dipole X            :         45.0028396          -45.9600064           -0.9571669
 Dipole Y            :         -8.0526392            7.8268941           -0.2257451
 Dipole Z            :         14.2498448          -14.1377876            0.1120572
 Magnitude           :                                                    0.9897909

    SAPT Results
  --------------------------------------------------------------------------------------------------------
    Electrostatics               -221.45942951 [mEh]    -138.96789008 [kcal/mol]    -581.44165208 [kJ/mol]
      Elst10,r                   -220.03151875 [mEh]    -138.07186255 [kcal/mol]    -577.69267290 [kJ/mol]
      Elst12,r                     -1.42791076 [mEh]      -0.89602753 [kcal/mol]      -3.74897918 [kJ/mol]

    Exchange                      151.18133646 [mEh]      94.86772089 [kcal/mol]     396.92654420 [kJ/mol]
      Exch10                      113.49149586 [mEh]      71.21698885 [kcal/mol]     297.97188133 [kJ/mol]
      Exch10(S^2)                 115.23756501 [mEh]      72.31266378 [kcal/mol]     302.55618526 [kJ/mol]
      Exch11(S^2)                   2.67137256 [mEh]       1.67631159 [kcal/mol]       7.01368769 [kJ/mol]
      Exch12(S^2)                  35.01846804 [mEh]      21.97442045 [kcal/mol]      91.94097518 [kJ/mol]

    Induction                     -73.90593630 [mEh]     -46.37667519 [kcal/mol]    -194.04000901 [kJ/mol]
      Ind20,r                     -86.75799062 [mEh]     -54.44146104 [kcal/mol]    -227.78307299 [kJ/mol]
      Ind22                       -21.41672116 [mEh]     -13.43919542 [kcal/mol]     -56.22959365 [kJ/mol]
      Exch-Ind20,r                 32.53174620 [mEh]      20.41397894 [kcal/mol]      85.41208789 [kJ/mol]
      Exch-Ind22                    8.03065322 [mEh]       5.03931098 [kcal/mol]      21.08447714 [kJ/mol]
      delta HF,r (2)               -6.29362395 [mEh]      -3.94930865 [kcal/mol]     -16.52390740 [kJ/mol]

    Dispersion                    -42.80655586 [mEh]     -26.86151934 [kcal/mol]    -112.38859694 [kJ/mol]
      Disp20                      -41.81668577 [mEh]     -26.24036648 [kcal/mol]    -109.78969337 [kJ/mol]
      Disp21                        1.52241928 [mEh]       0.95533252 [kcal/mol]       3.99711126 [kJ/mol]
      Disp22 (SDQ)                 -5.22197890 [mEh]      -3.27684123 [kcal/mol]     -13.71030371 [kJ/mol]
      Disp22 (T)                   -7.92237015 [mEh]      -4.97136233 [kcal/mol]     -20.80017997 [kJ/mol]
      Est. Disp22 (T)              -9.09512504 [mEh]      -5.70727713 [kcal/mol]     -23.87924749 [kJ/mol]
      Exch-Disp20                  11.80481456 [mEh]       7.40763298 [kcal/mol]      30.99353637 [kJ/mol]

  Total HF                       -167.05989126 [mEh]    -104.83166445 [kcal/mol]    -438.61568407 [kJ/mol]
  Total SAPT0                    -197.07176246 [mEh]    -123.66439796 [kcal/mol]    -517.41184107 [kJ/mol]
  Total SAPT2                    -174.19590055 [mEh]    -109.30957789 [kcal/mol]    -457.35127389 [kJ/mol]
  Total SAPT2+                   -186.99058521 [mEh]    -117.33836373 [kcal/mol]    -490.94371383 [kJ/mol]

  Special recipe for scaled SAPT0 (see Manual):
    Electrostatics sSAPT0        -220.03151875 [mEh]    -138.07186255 [kcal/mol]    -577.69267290 [kJ/mol]
    Exchange sSAPT0               113.49149586 [mEh]      71.21698885 [kcal/mol]     297.97188133 [kJ/mol]
    Induction sSAPT0              -61.97632980 [mEh]     -38.89073410 [kcal/mol]    -162.71883147 [kJ/mol]
    Dispersion sSAPT0             -30.54037826 [mEh]     -19.16437669 [kcal/mol]     -80.18375206 [kJ/mol]
  Total sSAPT0                   -199.05673095 [mEh]    -124.90998449 [kcal/mol]    -522.62337510 [kJ/mol]
  --------------------------------------------------------------------------------------------------------

*** Psi4 exiting successfully. Buy a developer a beer!
