                               Psi4 1.9 release

  ==> Input File <==

--------------------------------------------------------------------------
MEMORY 60 GB

molecule dimer {
-1 1
Cl     0.000000     0.000000     0.000000
--
0 1
O      3.130045    -0.039116     0.000000
H      2.155226    -0.129176     0.000000
H      3.237770     0.913004     0.000000
O     -1.531147     2.730256     0.000000
H     -0.965743     1.931069     0.000000
H     -2.409570     2.347489     0.000000
O     -1.598898    -2.691140     0.000000
H     -1.189483    -1.801893     0.000000
H     -0.828200    -3.260493     0.000000

units ang
no_reorient
no_com
symmetry c1
}

set {
basis        aug-cc-pVTZ
scf_type     df
}

energy("sapt2+")
--------------------------------------------------------------------------

  //              Dimer HF             //
    Molecular point group: c1
  Charge       = -1
  Multiplicity = 1
  Basis Set: AUG-CC-PVTZ
    Blend: AUG-CC-PVTZ
  Basis Set: (AUG-CC-PVTZ AUX)
    Blend: AUG-CC-PVTZ-JKFIT
  @DF-RHF Final Energy:  -687.80206394965148
    Total Energy =                       -687.8020639496514832
 Dipole X            :         -0.0000012           -0.0000000           -0.0000012
 Dipole Y            :         -0.0000004           -0.0000000           -0.0000004
 Dipole Z            :          0.0000000            0.0000000            0.0000000
 Magnitude           :                                                    0.0000012
  //            Monomer A HF           //
    Molecular point group: c1
  Multiplicity = 1
  Basis Set: AUG-CC-PVTZ
    Blend: AUG-CC-PVTZ
  Basis Set: (AUG-CC-PVTZ AUX)
    Blend: AUG-CC-PVTZ-JKFIT
  @DF-RHF Final Energy:  -459.57355159080907
    Total Energy =                       -459.5735515908090747
  //            Monomer B HF           //
    Molecular point group: c1

    Geometry (in Angstrom), charge = 0, multiplicity = 1:

       Center              X                  Y                   Z               Mass
    ------------   -----------------  -----------------  -----------------  -----------------
      Gh(CL)          0.000000000000     0.000000000000     0.000000000000    34.968852682000
         O            3.130045000000    -0.039116000000     0.000000000000    15.994914619570
         H            2.155226000000    -0.129176000000     0.000000000000     1.007825032230
         H            3.237770000000     0.913004000000     0.000000000000     1.007825032230
         O           -1.531147000000     2.730256000000     0.000000000000    15.994914619570
         H           -0.965743000000     1.931069000000     0.000000000000     1.007825032230
         H           -2.409570000000     2.347489000000     0.000000000000     1.007825032230
         O           -1.598898000000    -2.691140000000     0.000000000000    15.994914619570
         H           -1.189483000000    -1.801893000000     0.000000000000     1.007825032230
         H           -0.828200000000    -3.260493000000     0.000000000000     1.007825032230

  Charge       = 0
  Multiplicity = 1
  Basis Set: AUG-CC-PVTZ
    Blend: AUG-CC-PVTZ
  Basis Set: (AUG-CC-PVTZ AUX)
    Blend: AUG-CC-PVTZ-JKFIT

    Orbital Energies [Eh]
    ---------------------

    Doubly Occupied:

       1A    -20.582093     2A    -20.582093     3A    -20.582093
       4A     -1.361471     5A     -1.361436     6A     -1.361436
       7A     -0.718260     8A     -0.717868     9A     -0.717868
      10A     -0.599812    11A     -0.599285    12A     -0.599284
      13A     -0.521768    14A     -0.521626    15A     -0.521626

  @DF-RHF Final Energy:  -228.17520187581846

   => Energetics <=

    Nuclear Repulsion Energy =             57.5037519578704348
    One-Electron Energy =                -428.6618683683989275
    Two-Electron Energy =                 142.9829145347100052
    Total Energy =                       -228.1752018758184590
 Dipole X            :          0.0000001           -0.0000000            0.0000001
 Dipole Y            :          0.0000000           -0.0000000            0.0000000
 Dipole Z            :          0.0000000            0.0000000            0.0000000
 Magnitude           :                                                    0.0000001

    SAPT Results
  --------------------------------------------------------------------------------------------------------
    Electrostatics                -87.62398889 [mEh]     -54.98488316 [kcal/mol]    -230.05675114 [kJ/mol]
      Elst10,r                    -87.56775711 [mEh]     -54.94959718 [kcal/mol]    -229.90911462 [kJ/mol]
      Elst12,r                     -0.05623178 [mEh]      -0.03528597 [kcal/mol]      -0.14763652 [kJ/mol]

    Exchange                       70.11561075 [mEh]      43.99821001 [kcal/mol]     184.08851067 [kJ/mol]
      Exch10                       62.16820924 [mEh]      39.01114027 [kcal/mol]     163.22261088 [kJ/mol]
      Exch10(S^2)                  61.64308434 [mEh]      38.68161942 [kcal/mol]     161.84389565 [kJ/mol]
      Exch11(S^2)                   3.03173644 [mEh]       1.90244334 [kcal/mol]       7.95982291 [kJ/mol]
      Exch12(S^2)                   4.91566507 [mEh]       3.08462640 [kcal/mol]      12.90607687 [kJ/mol]

    Induction                     -30.41330831 [mEh]     -19.08463910 [kcal/mol]     -79.85012997 [kJ/mol]
      Ind20,r                     -47.76495426 [mEh]     -29.97296132 [kcal/mol]    -125.40687014 [kJ/mol]
      Ind22                        -6.00276675 [mEh]      -3.76679301 [kcal/mol]     -15.76026194 [kJ/mol]
      Exch-Ind20,r                 27.85317955 [mEh]      17.47813404 [kcal/mol]      73.12851284 [kJ/mol]
      Exch-Ind22                    3.50039360 [mEh]       2.19653015 [kcal/mol]       9.19028213 [kJ/mol]
      delta HF,r (2)               -7.99916045 [mEh]      -5.01954896 [kcal/mol]     -21.00179286 [kJ/mol]

    Dispersion                    -21.27628305 [mEh]     -13.35106918 [kcal/mol]     -55.86087345 [kJ/mol]
      Disp20                      -24.43788246 [mEh]     -15.33500276 [kcal/mol]     -64.16165156 [kJ/mol]
      Disp21                        1.38785474 [mEh]       0.87089200 [kcal/mol]       3.64381212 [kJ/mol]
      Disp22 (SDQ)                  0.08911687 [mEh]       0.05592168 [kcal/mol]       0.23397632 [kJ/mol]
      Disp22 (T)                   -3.80443689 [mEh]      -2.38732019 [kcal/mol]      -9.98854767 [kJ/mol]
      Est. Disp22 (T)              -4.36642995 [mEh]      -2.73997616 [kcal/mol]     -11.46406027 [kJ/mol]
      Exch-Disp20                   6.05105775 [mEh]       3.79709606 [kcal/mol]      15.88704993 [kJ/mol]

  Total HF                        -53.31048302 [mEh]     -33.45283315 [kcal/mol]    -139.96665390 [kJ/mol]
  Total SAPT0                     -71.69730774 [mEh]     -44.99073985 [kcal/mol]    -188.24125553 [kJ/mol]
  Total SAPT2                     -66.30851116 [mEh]     -41.60921895 [kcal/mol]    -174.09297207 [kJ/mol]
  Total SAPT2+                    -69.19796950 [mEh]     -43.42238143 [kcal/mol]    -181.67924389 [kJ/mol]

  Special recipe for scaled SAPT0 (see Manual):
    Electrostatics sSAPT0         -87.56775711 [mEh]     -54.94959718 [kcal/mol]    -229.90911462 [kJ/mol]
    Exchange sSAPT0                62.16820924 [mEh]      39.01114027 [kcal/mol]     163.22261088 [kJ/mol]
    Induction sSAPT0              -27.19302732 [mEh]     -17.06388226 [kcal/mol]     -71.39528338 [kJ/mol]
    Dispersion sSAPT0             -18.23086041 [mEh]     -11.44003762 [kcal/mol]     -47.86511740 [kJ/mol]
  Total sSAPT0                    -70.82343559 [mEh]     -44.44237680 [kcal/mol]    -185.94690452 [kJ/mol]
  --------------------------------------------------------------------------------------------------------

*** Psi4 exiting successfully. Buy a developer a beer!
