                               Psi4 1.9 release

  ==> Input File <==

--------------------------------------------------------------------------
MEMORY 60 GB

molecule dimer {
-1 1
Cl     0.000000     0.000000     0.000000
--
0 1
O     -0.625827     1.305436    -2.845021
H     -0.333603     0.654623    -2.181922
H     -0.401283     2.126388    -2.386172
O     -2.753995     1.248168    -0.821801
H     -1.999726     0.852379    -0.342959
H     -2.381722     1.280045    -1.715069
O     -0.346691     3.107636    -0.517618
H     -0.023288     2.235365    -0.222474
H     -1.299840     2.972506    -0.461474
O     -2.665224    -1.803758    -0.518504
H     -1.763499    -1.508150    -0.317440
H     -3.092618    -0.962083    -0.709237

units ang
no_reorient
no_com
symmetry c1
}

set {
basis        aug-cc-pVTZ
scf_type     df
}

energy("sapt2+")
--------------------------------------------------------------------------

  //              Dimer HF             //
    Molecular point group: c1
  Charge       = -1
  Multiplicity = 1
  Basis Set: AUG-CC-PVTZ
    Blend: AUG-CC-PVTZ
  Basis Set: (AUG-CC-PVTZ AUX)
    Blend: AUG-CC-PVTZ-JKFIT
  @DF-RHF Final Energy:  -763.87777050217301
    Total Energy =                       -763.8777705021730071
 Dipole X            :        119.6971185         -117.9746099            1.7225086
 Dipole Y            :        -73.1763924           72.7751086           -0.4012837
 Dipole Z            :         88.0423669          -86.8523778            1.1899892
 Magnitude           :                                                    2.1316986
  //            Monomer A HF           //
    Molecular point group: c1
  Multiplicity = 1
  Basis Set: AUG-CC-PVTZ
    Blend: AUG-CC-PVTZ
  Basis Set: (AUG-CC-PVTZ AUX)
    Blend: AUG-CC-PVTZ-JKFIT
  @DF-RHF Final Energy:  -459.57356489477098
    Total Energy =                       -459.5735648947709819
  //            Monomer B HF           //
    Molecular point group: c1

    Geometry (in Angstrom), charge = 0, multiplicity = 1:

       Center              X                  Y                   Z               Mass
    ------------   -----------------  -----------------  -----------------  -----------------
      Gh(CL)          0.000000000000     0.000000000000     0.000000000000    34.968852682000
         O           -0.625827000000     1.305436000000    -2.845021000000    15.994914619570
         H           -0.333603000000     0.654623000000    -2.181922000000     1.007825032230
         H           -0.401283000000     2.126388000000    -2.386172000000     1.007825032230
         O           -2.753995000000     1.248168000000    -0.821801000000    15.994914619570
         H           -1.999726000000     0.852379000000    -0.342959000000     1.007825032230
         H           -2.381722000000     1.280045000000    -1.715069000000     1.007825032230
         O           -0.346691000000     3.107636000000    -0.517618000000    15.994914619570
         H           -0.023288000000     2.235365000000    -0.222474000000     1.007825032230
         H           -1.299840000000     2.972506000000    -0.461474000000     1.007825032230
         O           -2.665224000000    -1.803758000000    -0.518504000000    15.994914619570
         H           -1.763499000000    -1.508150000000    -0.317440000000     1.007825032230
         H           -3.092618000000    -0.962083000000    -0.709237000000     1.007825032230

  Charge       = 0
  Multiplicity = 1
  Basis Set: AUG-CC-PVTZ
    Blend: AUG-CC-PVTZ
  Basis Set: (AUG-CC-PVTZ AUX)
    Blend: AUG-CC-PVTZ-JKFIT

    Orbital Energies [Eh]
    ---------------------

    Doubly Occupied:

       1A    -20.604396     2A    -20.602811     3A    -20.596449
       4A    -20.573668     5A     -1.396443     6A     -1.382889
       7A     -1.376362     8A     -1.356033     9A     -0.740624
      10A     -0.737290    11A     -0.731916    12A     -0.710971
      13A     -0.642313    14A     -0.624586    15A     -0.622754
      16A     -0.599061    17A     -0.546912    18A     -0.538084
      19A     -0.533661    20A     -0.514789

  @DF-RHF Final Energy:  -304.23360575643653

   => Energetics <=

    Nuclear Repulsion Energy =            132.5499273842591776
    One-Electron Energy =                -682.7030370223258160
    Two-Electron Energy =                 245.9195038816301349
    Total Energy =                       -304.2336057564365319
 Dipole X            :        118.8738375         -117.9746099            0.8992276
 Dipole Y            :        -72.5960218           72.7751086            0.1790868
 Dipole Z            :         87.4354046          -86.8523778            0.5830269
 Magnitude           :                                                    1.0865554

    SAPT Results
  --------------------------------------------------------------------------------------------------------
    Electrostatics               -105.80254195 [mEh]     -66.39209743 [kcal/mol]    -277.78453563 [kJ/mol]
      Elst10,r                   -106.08834824 [mEh]     -66.57144358 [kcal/mol]    -278.53491994 [kJ/mol]
      Elst12,r                      0.28580629 [mEh]       0.17934615 [kcal/mol]       0.75038431 [kJ/mol]

    Exchange                       76.10209683 [mEh]      47.75478673 [kcal/mol]     199.80602770 [kJ/mol]
      Exch10                       67.04627025 [mEh]      42.07216976 [kcal/mol]     176.02995828 [kJ/mol]
      Exch10(S^2)                  66.02349441 [mEh]      41.43036823 [kcal/mol]     173.34466068 [kJ/mol]
      Exch11(S^2)                   3.14949432 [mEh]       1.97633752 [kcal/mol]       8.26899619 [kJ/mol]
      Exch12(S^2)                   5.90633226 [mEh]       3.70627945 [kcal/mol]      15.50707323 [kJ/mol]

    Induction                     -34.62450687 [mEh]     -21.72720609 [kcal/mol]     -90.90663027 [kJ/mol]
      Ind20,r                     -55.10762212 [mEh]     -34.58055496 [kcal/mol]    -144.68504195 [kJ/mol]
      Ind22                        -7.32441284 [mEh]      -4.59613845 [kcal/mol]     -19.23024325 [kJ/mol]
      Exch-Ind20,r                 32.03404380 [mEh]      20.10166597 [kcal/mol]      84.10537040 [kJ/mol]
      Exch-Ind22                    4.25767893 [mEh]       2.67173387 [kcal/mol]      11.17853449 [kJ/mol]
      delta HF,r (2)               -8.48419464 [mEh]      -5.32391252 [kcal/mol]     -22.27524997 [kJ/mol]

    Dispersion                    -24.93463360 [mEh]     -15.64671881 [kcal/mol]     -65.46587151 [kJ/mol]
      Disp20                      -28.62924083 [mEh]     -17.96511985 [kcal/mol]     -75.16606143 [kJ/mol]
      Disp21                        2.23481114 [mEh]       1.40236517 [kcal/mol]       5.86749585 [kJ/mol]
      Disp22 (SDQ)                 -0.20167260 [mEh]      -0.12655147 [kcal/mol]      -0.52949135 [kJ/mol]
      Disp22 (T)                   -4.65126709 [mEh]      -2.91871417 [kcal/mol]     -12.21190007 [kJ/mol]
      Est. Disp22 (T)              -5.30823040 [mEh]      -3.33096487 [kcal/mol]     -13.93675700 [kJ/mol]
      Exch-Disp20                   6.96969908 [mEh]       4.37355220 [kcal/mol]      18.29894242 [kJ/mol]

  Total HF                        -70.59985097 [mEh]     -44.30207533 [kcal/mol]    -185.35988317 [kJ/mol]
  Total SAPT0                     -92.25939271 [mEh]     -57.89364297 [kcal/mol]    -242.22700218 [kJ/mol]
  Total SAPT2                     -85.98449374 [mEh]     -53.95608442 [kcal/mol]    -225.75225722 [kJ/mol]
  Total SAPT2+                    -89.25958560 [mEh]     -56.01123559 [kcal/mol]    -234.35100971 [kJ/mol]

  Special recipe for scaled SAPT0 (see Manual):
    Electrostatics sSAPT0        -106.08834824 [mEh]     -66.57144358 [kcal/mol]    -278.53491994 [kJ/mol]
    Exchange sSAPT0                67.04627025 [mEh]      42.07216976 [kcal/mol]     176.02995828 [kJ/mol]
    Induction sSAPT0              -30.04586520 [mEh]     -18.85406506 [kcal/mol]     -78.88540820 [kJ/mol]
    Dispersion sSAPT0             -21.33059351 [mEh]     -13.38514951 [kcal/mol]     -56.00346553 [kJ/mol]
  Total sSAPT0                    -90.41853670 [mEh]     -56.73848838 [kcal/mol]    -237.39383540 [kJ/mol]
  --------------------------------------------------------------------------------------------------------

*** Psi4 exiting successfully. Buy a developer a beer!
