                               Psi4 1.9 release

  ==> Input File <==

--------------------------------------------------------------------------
MEMORY 60 GB

molecule dimer {
-1 1
Cl     0.000000     0.000000     0.000000
--
0 1
O      1.193847     3.059880    -0.191540
H      1.050622     2.135766     0.059877
H      0.488373     3.190725    -0.833172
O     -1.255328     2.203026    -1.849559
H     -0.728175     1.510309    -1.405975
H     -1.946042     2.352910    -1.192080
O     -2.899295     1.180833     0.498000
H     -1.947579     0.986003     0.566824
H     -3.147755     0.570971    -0.212177
O     -1.994106    -1.093016     2.374025
H     -1.243096    -0.952935     1.778982
H     -2.613084    -0.428489     2.054550
O     -2.567289    -0.530699    -1.853207
H     -1.770490    -0.696869    -1.319972
H     -2.317304     0.282618    -2.307820

units ang
no_reorient
no_com
symmetry c1
}

set {
basis        aug-cc-pVTZ
scf_type     df
}

energy("sapt2+")
--------------------------------------------------------------------------

  //              Dimer HF             //
    Molecular point group: c1
  Charge       = -1
  Multiplicity = 1
  Basis Set: AUG-CC-PVTZ
    Blend: AUG-CC-PVTZ
  Basis Set: (AUG-CC-PVTZ AUX)
    Blend: AUG-CC-PVTZ-JKFIT
  @DF-RHF Final Energy:  -839.94955306584529
    Total Energy =                       -839.9495530658452935
 Dipole X            :        141.7717515         -140.5047241            1.2670273
 Dipole Y            :        -90.7490664           89.7831578           -0.9659086
 Dipole Z            :         20.2832922          -20.7665991           -0.4833070
 Magnitude           :                                                    1.6649094
  //            Monomer A HF           //
    Molecular point group: c1
  Multiplicity = 1
  Basis Set: AUG-CC-PVTZ
    Blend: AUG-CC-PVTZ
  Basis Set: (AUG-CC-PVTZ AUX)
    Blend: AUG-CC-PVTZ-JKFIT
  @DF-RHF Final Energy:  -459.57357975257082
    Total Energy =                       -459.5735797525708222
  //            Monomer B HF           //
    Molecular point group: c1

    Geometry (in Angstrom), charge = 0, multiplicity = 1:

       Center              X                  Y                   Z               Mass
    ------------   -----------------  -----------------  -----------------  -----------------
      Gh(CL)          0.000000000000     0.000000000000     0.000000000000    34.968852682000
         O            1.193847000000     3.059880000000    -0.191540000000    15.994914619570
         H            1.050622000000     2.135766000000     0.059877000000     1.007825032230
         H            0.488373000000     3.190725000000    -0.833172000000     1.007825032230
         O           -1.255328000000     2.203026000000    -1.849559000000    15.994914619570
         H           -0.728175000000     1.510309000000    -1.405975000000     1.007825032230
         H           -1.946042000000     2.352910000000    -1.192080000000     1.007825032230
         O           -2.899295000000     1.180833000000     0.498000000000    15.994914619570
         H           -1.947579000000     0.986003000000     0.566824000000     1.007825032230
         H           -3.147755000000     0.570971000000    -0.212177000000     1.007825032230
         O           -1.994106000000    -1.093016000000     2.374025000000    15.994914619570
         H           -1.243096000000    -0.952935000000     1.778982000000     1.007825032230
         H           -2.613084000000    -0.428489000000     2.054550000000     1.007825032230
         O           -2.567289000000    -0.530699000000    -1.853207000000    15.994914619570
         H           -1.770490000000    -0.696869000000    -1.319972000000     1.007825032230
         H           -2.317304000000     0.282618000000    -2.307820000000     1.007825032230

  Charge       = 0
  Multiplicity = 1
  Basis Set: AUG-CC-PVTZ
    Blend: AUG-CC-PVTZ
  Basis Set: (AUG-CC-PVTZ AUX)
    Blend: AUG-CC-PVTZ-JKFIT

    Orbital Energies [Eh]
    ---------------------

    Doubly Occupied:

       1A    -20.620925     2A    -20.611780     3A    -20.611452
       4A    -20.581059     5A    -20.579469     6A     -1.410558
       7A     -1.397116     8A     -1.390422     9A     -1.364066
      10A     -1.362300    11A     -0.757798    12A     -0.749250
      13A     -0.748299    14A     -0.719948    15A     -0.718313
      16A     -0.655584    17A     -0.636788    18A     -0.635146
      19A     -0.606752    20A     -0.604270    21A     -0.559366
      22A     -0.549270    23A     -0.546743    24A     -0.522206
      25A     -0.520629

  @DF-RHF Final Energy:  -380.28970668432004

   => Energetics <=

    Nuclear Repulsion Energy =            191.0311184800947899
    One-Electron Energy =                -903.7226253054579956
    Two-Electron Energy =                 332.4018001410431111
    Total Energy =                       -380.2897066843200378
 Dipole X            :        140.7916255         -140.5047241            0.2869013
 Dipole Y            :        -90.1258800           89.7831578           -0.3427222
 Dipole Z            :         20.0675522          -20.7665991           -0.6990470
 Magnitude           :                                                    0.8297214

    SAPT Results
  --------------------------------------------------------------------------------------------------------
    Electrostatics               -126.26986970 [mEh]     -79.23553949 [kcal/mol]    -331.52149722 [kJ/mol]
      Elst10,r                   -126.93244145 [mEh]     -79.65130954 [kcal/mol]    -333.26107910 [kJ/mol]
      Elst12,r                      0.66257175 [mEh]       0.41577005 [kcal/mol]       1.73958189 [kJ/mol]

    Exchange                       87.59826573 [mEh]      54.96874163 [kcal/mol]     229.98921499 [kJ/mol]
      Exch10                       76.68323774 [mEh]      48.11945816 [kcal/mol]     201.33181294 [kJ/mol]
      Exch10(S^2)                  75.68097561 [mEh]      47.49052918 [kcal/mol]     198.70037409 [kJ/mol]
      Exch11(S^2)                   3.88611906 [mEh]       2.43857653 [kcal/mol]      10.20300419 [kJ/mol]
      Exch12(S^2)                   7.02890893 [mEh]       4.41070695 [kcal/mol]      18.45439786 [kJ/mol]

    Induction                     -39.75456416 [mEh]     -24.94636564 [kcal/mol]    -104.37559382 [kJ/mol]
      Ind20,r                     -63.09193531 [mEh]     -39.59078713 [kcal/mol]    -165.64785335 [kJ/mol]
      Ind22                        -8.60291155 [mEh]      -5.39840850 [kcal/mol]     -22.58694115 [kJ/mol]
      Exch-Ind20,r                 35.68454823 [mEh]      22.39239208 [kcal/mol]      93.68976848 [kJ/mol]
      Exch-Ind22                    4.86577263 [mEh]       3.05331842 [kcal/mol]      12.77508428 [kJ/mol]
      delta HF,r (2)               -8.61003816 [mEh]      -5.40288052 [kcal/mol]     -22.60565209 [kJ/mol]

    Dispersion                    -29.88886364 [mEh]     -18.75554510 [kcal/mol]     -78.47320068 [kJ/mol]
      Disp20                      -34.05655060 [mEh]     -21.37080815 [kcal/mol]     -89.41546129 [kJ/mol]
      Disp21                        2.67756355 [mEh]       1.68019649 [kcal/mol]       7.02994213 [kJ/mol]
      Disp22 (SDQ)                 -0.29502872 [mEh]      -0.18513332 [kcal/mol]      -0.77459781 [kJ/mol]
      Disp22 (T)                   -5.56871198 [mEh]      -3.49441952 [kcal/mol]     -14.62065128 [kJ/mol]
      Est. Disp22 (T)              -6.37424709 [mEh]      -3.99990044 [kcal/mol]     -16.73558343 [kJ/mol]
      Exch-Disp20                   8.15939923 [mEh]       5.12010031 [kcal/mol]      21.42249972 [kJ/mol]

  Total HF                        -86.26662895 [mEh]     -54.13312694 [kcal/mol]    -226.49300312 [kJ/mol]
  Total SAPT0                    -112.16378033 [mEh]     -70.38383477 [kcal/mol]    -294.48596469 [kJ/mol]
  Total SAPT2                    -104.32331950 [mEh]     -65.46387133 [kcal/mol]    -273.90083762 [kJ/mol]
  Total SAPT2+                   -108.31503177 [mEh]     -67.96870859 [kcal/mol]    -284.38107674 [kJ/mol]

  Special recipe for scaled SAPT0 (see Manual):
    Electrostatics sSAPT0        -126.93244145 [mEh]     -79.65130954 [kcal/mol]    -333.26107910 [kJ/mol]
    Exchange sSAPT0                76.68323774 [mEh]      48.11945816 [kcal/mol]     201.33181294 [kJ/mol]
    Induction sSAPT0              -34.58082866 [mEh]     -21.69979759 [kcal/mol]     -90.79195313 [kJ/mol]
    Dispersion sSAPT0             -25.56866844 [mEh]     -16.04458168 [kcal/mol]     -67.13052975 [kJ/mol]
  Total sSAPT0                   -110.39870081 [mEh]     -69.27623065 [kcal/mol]    -289.85174904 [kJ/mol]
  --------------------------------------------------------------------------------------------------------

*** Psi4 exiting successfully. Buy a developer a beer!
