                               Psi4 1.9 release

  ==> Input File <==

--------------------------------------------------------------------------
MEMORY 60 GB

molecule dimer {
-1 1
Br     0.000000     0.000000     0.000000
--
0 1
O      3.120425    -0.826381    -0.653955
H      2.175049    -0.688085    -0.469907
H      3.482944     0.051128    -0.523257
O     -3.065056     0.696841    -1.021874
H     -2.151256     0.841718    -0.723588
H     -3.276492    -0.116119    -0.543554
O     -2.496649    -2.067458    -0.054316
H     -1.678532    -1.545525     0.055514
H     -2.454744    -2.255828    -1.000530
O     -1.575261    -1.133354     2.756572
H     -0.995542    -0.711630     2.103923
H     -2.135217    -1.683743     2.202281
O     -1.631762    -1.165015    -2.753747
H     -0.868527    -0.968596    -2.190041
H     -2.244185    -0.471353    -2.467719

units ang
no_reorient
no_com
symmetry c1
}

set {
basis        aug-cc-pVTZ
scf_type     df
}

energy("sapt2+")
--------------------------------------------------------------------------

  //              Dimer HF             //
    Molecular point group: c1
  Charge       = -1
  Multiplicity = 1
  Basis Set: AUG-CC-PVTZ
    Blend: AUG-CC-PVTZ
  Basis Set: (AUG-CC-PVTZ AUX)
    Blend: AUG-CC-PVTZ-JKFIT
  @DF-RHF Final Energy: -2952.89620122300494
    Total Energy =                      -2952.8962012230049368
 Dipole X            :        105.7596929         -104.5640759            1.1956170
 Dipole Y            :         83.6139988          -82.2238149            1.3901840
 Dipole Z            :         32.8947662          -32.8348191            0.0599471
 Magnitude           :                                                    1.8345858
  //            Monomer A HF           //
    Molecular point group: c1
  Multiplicity = 1
  Basis Set: AUG-CC-PVTZ
    Blend: AUG-CC-PVTZ
  Basis Set: (AUG-CC-PVTZ AUX)
    Blend: AUG-CC-PVTZ-JKFIT
  @DF-RHF Final Energy: -2572.53373448576031
    Total Energy =                      -2572.5337344857603057
  //            Monomer B HF           //
    Molecular point group: c1

    Geometry (in Angstrom), charge = 0, multiplicity = 1:

       Center              X                  Y                   Z               Mass
    ------------   -----------------  -----------------  -----------------  -----------------
      Gh(BR)          0.000000000000     0.000000000000     0.000000000000    78.918337600000
         O            3.120425000000    -0.826381000000    -0.653955000000    15.994914619570
         H            2.175049000000    -0.688085000000    -0.469907000000     1.007825032230
         H            3.482944000000     0.051128000000    -0.523257000000     1.007825032230
         O           -3.065056000000     0.696841000000    -1.021874000000    15.994914619570
         H           -2.151256000000     0.841718000000    -0.723588000000     1.007825032230
         H           -3.276492000000    -0.116119000000    -0.543554000000     1.007825032230
         O           -2.496649000000    -2.067458000000    -0.054316000000    15.994914619570
         H           -1.678532000000    -1.545525000000     0.055514000000     1.007825032230
         H           -2.454744000000    -2.255828000000    -1.000530000000     1.007825032230
         O           -1.575261000000    -1.133354000000     2.756572000000    15.994914619570
         H           -0.995542000000    -0.711630000000     2.103923000000     1.007825032230
         H           -2.135217000000    -1.683743000000     2.202281000000     1.007825032230
         O           -1.631762000000    -1.165015000000    -2.753747000000    15.994914619570
         H           -0.868527000000    -0.968596000000    -2.190041000000     1.007825032230
         H           -2.244185000000    -0.471353000000    -2.467719000000     1.007825032230

  Charge       = 0
  Multiplicity = 1
  Basis Set: AUG-CC-PVTZ
    Blend: AUG-CC-PVTZ
  Basis Set: (AUG-CC-PVTZ AUX)
    Blend: AUG-CC-PVTZ-JKFIT

    Orbital Energies [Eh]
    ---------------------

    Doubly Occupied:

       1A    -20.609236     2A    -20.600359     3A    -20.590467
       4A    -20.589268     5A    -20.580670     6A     -1.398446
       7A     -1.383789     8A     -1.372411     9A     -1.370267
      10A     -1.362892    11A     -0.749080    12A     -0.737189
      13A     -0.729012    14A     -0.728101    15A     -0.719990
      16A     -0.641847    17A     -0.627824    18A     -0.619521
      19A     -0.606421    20A     -0.598076    21A     -0.552517
      22A     -0.537590    23A     -0.530097    24A     -0.529335
      25A     -0.521161

  @DF-RHF Final Energy:  -380.29311770118807

   => Energetics <=

    Nuclear Repulsion Energy =            178.9626481114931096
    One-Electron Energy =                -879.9403920597126216
    Two-Electron Energy =                 320.6846262470314741
    Total Energy =                       -380.2931177011880663
 Dipole X            :        105.1384985         -104.5640759            0.5744226
 Dipole Y            :         83.0944847          -82.2238149            0.8706698
 Dipole Z            :         32.6921123          -32.8348191           -0.1427068
 Magnitude           :                                                    1.0528022

    SAPT Results
  --------------------------------------------------------------------------------------------------------
    Electrostatics               -119.31958614 [mEh]     -74.87417071 [kcal/mol]    -313.27353025 [kJ/mol]
      Elst10,r                   -119.39910056 [mEh]     -74.92406676 [kcal/mol]    -313.48229533 [kJ/mol]
      Elst12,r                      0.07951442 [mEh]       0.04989605 [kcal/mol]       0.20876509 [kJ/mol]

    Exchange                       93.99558400 [mEh]      58.98311945 [kcal/mol]     246.78537180 [kJ/mol]
      Exch10                       83.33534398 [mEh]      52.29371785 [kcal/mol]     218.79691547 [kJ/mol]
      Exch10(S^2)                  81.89601318 [mEh]      51.39052414 [kcal/mol]     215.01795299 [kJ/mol]
      Exch11(S^2)                   4.43682335 [mEh]       2.78414869 [kcal/mol]      11.64887811 [kJ/mol]
      Exch12(S^2)                   6.22341667 [mEh]       3.90525292 [kcal/mol]      16.33957821 [kJ/mol]

    Induction                     -36.82088646 [mEh]     -23.10545509 [kcal/mol]     -96.67322408 [kJ/mol]
      Ind20,r                     -70.62030410 [mEh]     -44.31490986 [kcal/mol]    -185.41358286 [kJ/mol]
      Ind22                       -10.06505340 [mEh]      -6.31591636 [kcal/mol]     -26.42579406 [kJ/mol]
      Exch-Ind20,r                 45.81311921 [mEh]      28.74816633 [kcal/mol]     120.28232792 [kJ/mol]
      Exch-Ind22                    6.52944641 [mEh]       4.09728948 [kcal/mol]      17.14305919 [kJ/mol]
      delta HF,r (2)               -8.47809459 [mEh]      -5.32008467 [kcal/mol]     -22.25923427 [kJ/mol]

    Dispersion                    -31.88921593 [mEh]     -20.01078511 [kcal/mol]     -83.72512489 [kJ/mol]
      Disp20                      -36.81505856 [mEh]     -23.10179802 [kcal/mol]     -96.65792292 [kJ/mol]
      Disp21                        2.89269639 [mEh]       1.81519439 [kcal/mol]       7.59477333 [kJ/mol]
      Disp22 (SDQ)                 -0.17294430 [mEh]      -0.10852419 [kcal/mol]      -0.45406521 [kJ/mol]
      Disp22 (T)                   -5.88117996 [mEh]      -3.69049614 [kcal/mol]     -15.44103586 [kJ/mol]
      Est. Disp22 (T)              -6.70526743 [mEh]      -4.20761883 [kcal/mol]     -17.60467720 [kJ/mol]
      Exch-Disp20                   8.91135797 [mEh]       5.59196155 [kcal/mol]      23.39676712 [kJ/mol]

  Total HF                        -69.34903606 [mEh]     -43.51717712 [kcal/mol]    -182.07586908 [kJ/mol]
  Total SAPT0                     -97.25273664 [mEh]     -61.02701359 [kcal/mol]    -255.33702488 [kJ/mol]
  Total SAPT2                     -90.04858919 [mEh]     -56.50634281 [kcal/mol]    -236.42253833 [kJ/mol]
  Total SAPT2+                    -94.03410453 [mEh]     -59.00729145 [kcal/mol]    -246.88650742 [kJ/mol]

  Special recipe for scaled SAPT0 (see Manual):
    Electrostatics sSAPT0        -119.39910056 [mEh]     -74.92406676 [kcal/mol]    -313.48229533 [kJ/mol]
    Exchange sSAPT0                83.33534398 [mEh]      52.29371785 [kcal/mol]     218.79691547 [kJ/mol]
    Induction sSAPT0              -30.82706718 [mEh]     -19.34427670 [kcal/mol]     -80.93645372 [kJ/mol]
    Dispersion sSAPT0             -27.42554040 [mEh]     -17.20978642 [kcal/mol]     -72.00574640 [kJ/mol]
  Total sSAPT0                    -94.31636416 [mEh]     -59.18441204 [kcal/mol]    -247.62757998 [kJ/mol]
  --------------------------------------------------------------------------------------------------------

*** Psi4 exiting successfully. Buy a developer a beer!
