                               Psi4 1.9 release

  ==> Input File <==

--------------------------------------------------------------------------
MEMORY 60 GB

molecule dimer {
0 1
O      0.000000     0.000000     0.000000
H     -0.954608     0.126242     0.000000
H      0.126242    -0.954608     0.000000
--
1 1
Li     1.828878     0.000000     0.000000

units ang
no_reorient
no_com
symmetry c1
}

set {
basis        aug-cc-pVTZ
scf_type     df
}

energy("sapt2+")
--------------------------------------------------------------------------

  //              Dimer HF             //
    Molecular point group: c1
  Charge       = 1
  Multiplicity = 1
  Basis Set: AUG-CC-PVTZ
    Blend: AUG-CC-PVTZ
  Basis Set: (AUG-CC-PVTZ AUX)
    Blend: AUG-CC-PVTZ-JKFIT + DEF2-UNIVERSAL-JKFIT
  @DF-RHF Final Energy:   -83.33513393204930
    Total Energy =                        -83.3351339320493025
 Dipole X            :         -6.3774142            8.8028507            2.4254365
 Dipole Y            :          0.9945178           -1.5653849           -0.5708671
 Dipole Z            :          0.0000000            0.0000000            0.0000000
 Magnitude           :                                                    2.4917126
  //            Monomer A HF           //
    Molecular point group: c1
  Multiplicity = 1
  Basis Set: AUG-CC-PVTZ
    Blend: AUG-CC-PVTZ
  Basis Set: (AUG-CC-PVTZ AUX)
    Blend: AUG-CC-PVTZ-JKFIT + DEF2-UNIVERSAL-JKFIT
  @DF-RHF Final Energy:   -76.06025472433252
    Total Energy =                        -76.0602547243325375
  //            Monomer B HF           //
    Molecular point group: c1

    Geometry (in Angstrom), charge = 1, multiplicity = 1:

       Center              X                  Y                   Z               Mass
    ------------   -----------------  -----------------  -----------------  -----------------
      Gh(O)           0.000000000000     0.000000000000     0.000000000000    15.994914619570
      Gh(H)          -0.954608000000     0.126242000000     0.000000000000     1.007825032230
      Gh(H)           0.126242000000    -0.954608000000     0.000000000000     1.007825032230
         LI           1.828878000000     0.000000000000     0.000000000000     7.016003436600

  Charge       = 1
  Multiplicity = 1
  Basis Set: AUG-CC-PVTZ
    Blend: AUG-CC-PVTZ
  Basis Set: (AUG-CC-PVTZ AUX)
    Blend: AUG-CC-PVTZ-JKFIT + DEF2-UNIVERSAL-JKFIT

    Orbital Energies [Eh]
    ---------------------

    Doubly Occupied:

       1A     -2.792367

  @DF-RHF Final Energy:    -7.23638364171155

   => Energetics <=

    Nuclear Repulsion Energy =              0.0000000000000000
    One-Electron Energy =                  -8.8880330247840007
    Two-Electron Energy =                   1.6516493830724470
    Total Energy =                         -7.2363836417115532
 Dipole X            :         -6.9121800           10.3682356            3.4560556
 Dipole Y            :         -0.0000067            0.0000000           -0.0000067
 Dipole Z            :          0.0000000            0.0000000            0.0000000
 Magnitude           :                                                    3.4560556

    SAPT Results
  --------------------------------------------------------------------------------------------------------
    Electrostatics                -31.14189608 [mEh]     -19.54183482 [kcal/mol]     -81.76303689 [kJ/mol]
      Elst10,r                    -34.36415671 [mEh]     -21.56383390 [kcal/mol]     -90.22308102 [kJ/mol]
      Elst12,r                      3.22226064 [mEh]       2.02199908 [kcal/mol]       8.46004413 [kJ/mol]

    Exchange                       17.53122111 [mEh]      11.00100733 [kcal/mol]      46.02821468 [kJ/mol]
      Exch10                       16.42880847 [mEh]      10.30923296 [kcal/mol]      43.13383071 [kJ/mol]
      Exch10(S^2)                  16.35776046 [mEh]      10.26464966 [kcal/mol]      42.94729416 [kJ/mol]
      Exch11(S^2)                  -0.07195645 [mEh]      -0.04515335 [kcal/mol]      -0.18892163 [kJ/mol]
      Exch12(S^2)                   1.17436908 [mEh]       0.73692773 [kcal/mol]       3.08330561 [kJ/mol]

    Induction                     -22.18003319 [mEh]     -13.91818096 [kcal/mol]     -58.23366913 [kJ/mol]
      Ind20,r                     -30.67767034 [mEh]     -19.25052877 [kcal/mol]     -80.54421237 [kJ/mol]
      Ind22                        -2.59855469 [mEh]      -1.63061769 [kcal/mol]      -6.82250440 [kJ/mol]
      Exch-Ind20,r                 11.55466942 [mEh]       7.25066453 [kcal/mol]      30.33678037 [kJ/mol]
      Exch-Ind22                    0.97873926 [mEh]       0.61416816 [kcal/mol]       2.56967958 [kJ/mol]
      delta HF,r (2)               -1.43721685 [mEh]      -0.90186719 [kcal/mol]      -3.77341231 [kJ/mol]

    Dispersion                     -0.92822391 [mEh]      -0.58246929 [kcal/mol]      -2.43705153 [kJ/mol]
      Disp20                       -0.90498478 [mEh]      -0.56788652 [kcal/mol]      -2.37603720 [kJ/mol]
      Disp21                       -0.03612236 [mEh]      -0.02266712 [kcal/mol]      -0.09483925 [kJ/mol]
      Disp22 (SDQ)                 -0.01160607 [mEh]      -0.00728292 [kcal/mol]      -0.03047172 [kJ/mol]
      Disp22 (T)                   -0.04485683 [mEh]      -0.02814809 [kcal/mol]      -0.11777160 [kJ/mol]
      Est. Disp22 (T)              -0.05839267 [mEh]      -0.03664195 [kcal/mol]      -0.15330992 [kJ/mol]
      Exch-Disp20                   0.08288196 [mEh]       0.05200922 [kcal/mol]       0.21760657 [kJ/mol]

  Total HF                        -38.49556601 [mEh]     -24.15633237 [kcal/mol]    -101.07009462 [kJ/mol]
  Total SAPT0                     -39.31766882 [mEh]     -24.67220967 [kcal/mol]    -103.22852526 [kJ/mol]
  Total SAPT2                     -36.61281098 [mEh]     -22.97488575 [kcal/mol]     -96.12692197 [kJ/mol]
  Total SAPT2+                    -36.71893207 [mEh]     -23.04147774 [kcal/mol]     -96.40554286 [kJ/mol]

  Special recipe for scaled SAPT0 (see Manual):
    Electrostatics sSAPT0         -34.36415671 [mEh]     -21.56383390 [kcal/mol]     -90.22308102 [kJ/mol]
    Exchange sSAPT0                16.42880847 [mEh]      10.30923296 [kcal/mol]      43.13383071 [kJ/mol]
    Induction sSAPT0              -20.40900382 [mEh]     -12.80684325 [kcal/mol]     -53.58383214 [kJ/mol]
    Dispersion sSAPT0              -0.82101815 [mEh]      -0.51519667 [kcal/mol]      -2.15558286 [kJ/mol]
  Total sSAPT0                    -39.16537021 [mEh]     -24.57664085 [kcal/mol]    -102.82866532 [kJ/mol]
  --------------------------------------------------------------------------------------------------------

*** Psi4 exiting successfully. Buy a developer a beer!
