                               Psi4 1.9 release

  ==> Input File <==

--------------------------------------------------------------------------
MEMORY 60 GB

molecule dimer {
0 1
O      0.000000     0.000000     0.000000
H     -0.367975     0.889835     0.000000
H     -0.763593    -0.586632     0.000000
--
1 1
Li     1.828878     0.000000     0.000000

units ang
no_reorient
no_com
symmetry c1
}

set {
basis        aug-cc-pVTZ
scf_type     df
}

energy("sapt2+")
--------------------------------------------------------------------------

  //              Dimer HF             //
    Molecular point group: c1
  Charge       = 1
  Multiplicity = 1
  Basis Set: AUG-CC-PVTZ
    Blend: AUG-CC-PVTZ
  Basis Set: (AUG-CC-PVTZ AUX)
    Blend: AUG-CC-PVTZ-JKFIT + DEF2-UNIVERSAL-JKFIT
  @DF-RHF Final Energy:   -83.35126885861763
    Total Energy =                        -83.3512688586176296
 Dipole X            :         -5.9924226            8.2298820            2.2374594
 Dipole Y            :         -0.3621929            0.5729706            0.2107778
 Dipole Z            :         -0.0000000            0.0000000           -0.0000000
 Magnitude           :                                                    2.2473656
  //            Monomer A HF           //
    Molecular point group: c1
  Multiplicity = 1
  Basis Set: AUG-CC-PVTZ
    Blend: AUG-CC-PVTZ
  Basis Set: (AUG-CC-PVTZ AUX)
    Blend: AUG-CC-PVTZ-JKFIT + DEF2-UNIVERSAL-JKFIT
  @DF-RHF Final Energy:   -76.06025788844913
    Total Energy =                        -76.0602578884491436
  //            Monomer B HF           //
    Molecular point group: c1

    Geometry (in Angstrom), charge = 1, multiplicity = 1:

       Center              X                  Y                   Z               Mass
    ------------   -----------------  -----------------  -----------------  -----------------
      Gh(O)           0.000000000000     0.000000000000     0.000000000000    15.994914619570
      Gh(H)          -0.367975000000     0.889835000000     0.000000000000     1.007825032230
      Gh(H)          -0.763593000000    -0.586632000000     0.000000000000     1.007825032230
         LI           1.828878000000     0.000000000000     0.000000000000     7.016003436600

  Charge       = 1
  Multiplicity = 1
  Basis Set: AUG-CC-PVTZ
    Blend: AUG-CC-PVTZ
  Basis Set: (AUG-CC-PVTZ AUX)
    Blend: AUG-CC-PVTZ-JKFIT + DEF2-UNIVERSAL-JKFIT

    Orbital Energies [Eh]
    ---------------------

    Doubly Occupied:

       1A     -2.792367

  @DF-RHF Final Energy:    -7.23638360396625

   => Energetics <=

    Nuclear Repulsion Energy =              0.0000000000000000
    One-Electron Energy =                  -8.8880326046245948
    Two-Electron Energy =                   1.6516490006583442
    Total Energy =                         -7.2363836039662504
 Dipole X            :         -6.9121721           10.3682356            3.4560636
 Dipole Y            :         -0.0000116            0.0000000           -0.0000116
 Dipole Z            :         -0.0000000            0.0000000           -0.0000000
 Magnitude           :                                                    3.4560636

    SAPT Results
  --------------------------------------------------------------------------------------------------------
    Electrostatics                -49.83065115 [mEh]     -31.26920568 [kcal/mol]    -130.83035656 [kJ/mol]
      Elst10,r                    -53.73577130 [mEh]     -33.71970557 [kcal/mol]    -141.08324811 [kJ/mol]
      Elst12,r                      3.90512015 [mEh]       2.45049989 [kcal/mol]      10.25289155 [kJ/mol]

    Exchange                       20.66982440 [mEh]      12.97051063 [kcal/mol]      54.26861649 [kJ/mol]
      Exch10                       19.49115399 [mEh]      12.23088379 [kcal/mol]      51.17401776 [kJ/mol]
      Exch10(S^2)                  19.39201438 [mEh]      12.16867274 [kcal/mol]      50.91372674 [kJ/mol]
      Exch11(S^2)                  -0.03778113 [mEh]      -0.02370802 [kcal/mol]      -0.09919434 [kJ/mol]
      Exch12(S^2)                   1.21645154 [mEh]       0.76333486 [kcal/mol]       3.19379307 [kJ/mol]

    Induction                     -21.92849373 [mEh]     -13.76033756 [kcal/mol]     -57.57325235 [kJ/mol]
      Ind20,r                     -33.00432778 [mEh]     -20.71052835 [kcal/mol]     -86.65285064 [kJ/mol]
      Ind22                        -2.69211068 [mEh]      -1.68932496 [kcal/mol]      -7.06813561 [kJ/mol]
      Exch-Ind20,r                 14.05404110 [mEh]       8.81904393 [kcal/mol]      36.89887982 [kJ/mol]
      Exch-Ind22                    1.14636585 [mEh]       0.71935543 [kcal/mol]       3.00978311 [kJ/mol]
      delta HF,r (2)               -1.43246222 [mEh]      -0.89888361 [kcal/mol]      -3.76092904 [kJ/mol]

    Dispersion                     -0.93222745 [mEh]      -0.58498156 [kcal/mol]      -2.44756283 [kJ/mol]
      Disp20                       -0.91902934 [mEh]      -0.57669962 [kcal/mol]      -2.41291121 [kJ/mol]
      Disp21                       -0.04182399 [mEh]      -0.02624495 [kcal/mol]      -0.10980888 [kJ/mol]
      Disp22 (SDQ)                 -0.01218787 [mEh]      -0.00764800 [kcal/mol]      -0.03199925 [kJ/mol]
      Disp22 (T)                   -0.04607712 [mEh]      -0.02891383 [kcal/mol]      -0.12097546 [kJ/mol]
      Est. Disp22 (T)              -0.05930864 [mEh]      -0.03721673 [kcal/mol]      -0.15571480 [kJ/mol]
      Exch-Disp20                   0.10012239 [mEh]       0.06282775 [kcal/mol]       0.26287130 [kJ/mol]

  Total HF                        -54.62736620 [mEh]     -34.27918982 [kcal/mol]    -143.42413020 [kJ/mol]
  Total SAPT0                     -55.44627315 [mEh]     -34.79306169 [kcal/mol]    -145.57417011 [kJ/mol]
  Total SAPT2                     -51.90822742 [mEh]     -32.57290448 [kcal/mol]    -136.28503233 [kJ/mol]
  Total SAPT2+                    -52.02154792 [mEh]     -32.64401416 [kcal/mol]    -136.58255525 [kJ/mol]

  Special recipe for scaled SAPT0 (see Manual):
    Electrostatics sSAPT0         -53.73577130 [mEh]     -33.71970557 [kcal/mol]    -141.08324811 [kJ/mol]
    Exchange sSAPT0                19.49115399 [mEh]      12.23088379 [kcal/mol]      51.17401776 [kJ/mol]
    Induction sSAPT0              -20.16609567 [mEh]     -12.65441608 [kcal/mol]     -52.94607689 [kJ/mol]
    Dispersion sSAPT0              -0.81736349 [mEh]      -0.51290334 [kcal/mol]      -2.14598756 [kJ/mol]
  Total sSAPT0                    -55.22807647 [mEh]     -34.65614120 [kcal/mol]    -145.00129480 [kJ/mol]
  --------------------------------------------------------------------------------------------------------

*** Psi4 exiting successfully. Buy a developer a beer!
