                               Psi4 1.9 release

  ==> Input File <==

--------------------------------------------------------------------------
MEMORY 60 GB

molecule dimer {
0 1
O      0.000000     0.000000     0.000000
H      0.369011     0.889406     0.000000
H     -0.954754     0.125130     0.000000
--
1 1
Li     1.828878     0.000000     0.000000

units ang
no_reorient
no_com
symmetry c1
}

set {
basis        aug-cc-pVTZ
scf_type     df
}

energy("sapt2+")
--------------------------------------------------------------------------

  //              Dimer HF             //
    Molecular point group: c1
  Charge       = 1
  Multiplicity = 1
  Basis Set: AUG-CC-PVTZ
    Blend: AUG-CC-PVTZ
  Basis Set: (AUG-CC-PVTZ AUX)
    Blend: AUG-CC-PVTZ-JKFIT + DEF2-UNIVERSAL-JKFIT
  @DF-RHF Final Energy:   -83.31973349448494
    Total Energy =                        -83.3197334944849501
 Dipole X            :         -6.6930297            9.2613418            2.5683120
 Dipole Y            :         -1.2257344            1.9171952            0.6914607
 Dipole Z            :         -0.0000000            0.0000000           -0.0000000
 Magnitude           :                                                    2.6597640
  //            Monomer A HF           //
    Molecular point group: c1
  Multiplicity = 1
  Basis Set: AUG-CC-PVTZ
    Blend: AUG-CC-PVTZ
  Basis Set: (AUG-CC-PVTZ AUX)
    Blend: AUG-CC-PVTZ-JKFIT + DEF2-UNIVERSAL-JKFIT
  @DF-RHF Final Energy:   -76.06025614315706
    Total Energy =                        -76.0602561431570621
  //            Monomer B HF           //
    Molecular point group: c1

    Geometry (in Angstrom), charge = 1, multiplicity = 1:

       Center              X                  Y                   Z               Mass
    ------------   -----------------  -----------------  -----------------  -----------------
      Gh(O)           0.000000000000     0.000000000000     0.000000000000    15.994914619570
      Gh(H)           0.369011000000     0.889406000000     0.000000000000     1.007825032230
      Gh(H)          -0.954754000000     0.125130000000     0.000000000000     1.007825032230
         LI           1.828878000000     0.000000000000     0.000000000000     7.016003436600

  Charge       = 1
  Multiplicity = 1
  Basis Set: AUG-CC-PVTZ
    Blend: AUG-CC-PVTZ
  Basis Set: (AUG-CC-PVTZ AUX)
    Blend: AUG-CC-PVTZ-JKFIT + DEF2-UNIVERSAL-JKFIT

    Orbital Energies [Eh]
    ---------------------

    Doubly Occupied:

       1A     -2.792367

  @DF-RHF Final Energy:    -7.23638368014559

   => Energetics <=

    Nuclear Repulsion Energy =              0.0000000000000000
    One-Electron Energy =                  -8.8880338547062454
    Two-Electron Energy =                   1.6516501745606533
    Total Energy =                         -7.2363836801455923
 Dipole X            :         -6.9121714           10.3682356            3.4560643
 Dipole Y            :         -0.0000098            0.0000000           -0.0000098
 Dipole Z            :          0.0000000            0.0000000            0.0000000
 Magnitude           :                                                    3.4560643

    SAPT Results
  --------------------------------------------------------------------------------------------------------
    Electrostatics                -14.88686131 [mEh]      -9.34164651 [kcal/mol]     -39.08544900 [kJ/mol]
      Elst10,r                    -17.76580194 [mEh]     -11.14820903 [kcal/mol]     -46.64410657 [kJ/mol]
      Elst12,r                      2.87894063 [mEh]       1.80656252 [kcal/mol]       7.55865757 [kJ/mol]

    Exchange                       17.00818600 [mEh]      10.67279785 [kcal/mol]      44.65498620 [kJ/mol]
      Exch10                       16.03466750 [mEh]      10.06190576 [kcal/mol]      42.09901372 [kJ/mol]
      Exch10(S^2)                  15.96650929 [mEh]      10.01913584 [kcal/mol]      41.92006437 [kJ/mol]
      Exch11(S^2)                  -0.09613821 [mEh]      -0.06032764 [kcal/mol]      -0.25241083 [kJ/mol]
      Exch12(S^2)                   1.06965671 [mEh]       0.67121972 [kcal/mol]       2.80838331 [kJ/mol]

    Induction                     -22.99659707 [mEh]     -14.43058252 [kcal/mol]     -60.37755728 [kJ/mol]
      Ind20,r                     -30.44525515 [mEh]     -19.10468604 [kcal/mol]     -79.93400637 [kJ/mol]
      Ind22                        -2.51441290 [mEh]      -1.57781791 [kcal/mol]      -6.60159016 [kJ/mol]
      Exch-Ind20,r                 10.65956933 [mEh]       6.68898074 [kcal/mol]      27.98669542 [kJ/mol]
      Exch-Ind22                    0.88035257 [mEh]       0.55242958 [kcal/mol]       2.31136535 [kJ/mol]
      delta HF,r (2)               -1.57685093 [mEh]      -0.98948889 [kcal/mol]      -4.14002153 [kJ/mol]

    Dispersion                     -0.98844669 [mEh]      -0.62025966 [kcal/mol]      -2.59516642 [kJ/mol]
      Disp20                       -0.95686581 [mEh]      -0.60044236 [kcal/mol]      -2.51225085 [kJ/mol]
      Disp21                       -0.03916487 [mEh]      -0.02457633 [kcal/mol]      -0.10282735 [kJ/mol]
      Disp22 (SDQ)                 -0.00916522 [mEh]      -0.00575126 [kcal/mol]      -0.02406328 [kJ/mol]
      Disp22 (T)                   -0.04652343 [mEh]      -0.02919389 [kcal/mol]      -0.12214725 [kJ/mol]
      Est. Disp22 (T)              -0.06118499 [mEh]      -0.03839416 [kcal/mol]      -0.16064118 [kJ/mol]
      Exch-Disp20                   0.07793421 [mEh]       0.04890445 [kcal/mol]       0.20461623 [kJ/mol]

  Total HF                        -23.09367118 [mEh]     -14.49149745 [kcal/mol]     -60.63242534 [kJ/mol]
  Total SAPT0                     -23.97260279 [mEh]     -15.04303536 [kcal/mol]     -62.94005996 [kJ/mol]
  Total SAPT2                     -21.75420399 [mEh]     -13.65096910 [kcal/mol]     -57.11565470 [kJ/mol]
  Total SAPT2+                    -21.86371907 [mEh]     -13.71969085 [kcal/mol]     -57.40318650 [kJ/mol]

  Special recipe for scaled SAPT0 (see Manual):
    Electrostatics sSAPT0         -17.76580194 [mEh]     -11.14820903 [kcal/mol]     -46.64410657 [kJ/mol]
    Exchange sSAPT0                16.03466750 [mEh]      10.06190576 [kcal/mol]      42.09901372 [kJ/mol]
    Induction sSAPT0              -21.22544172 [mEh]     -13.31916576 [kcal/mol]     -55.72738955 [kJ/mol]
    Dispersion sSAPT0              -0.87792928 [mEh]      -0.55090894 [kcal/mol]      -2.30500301 [kJ/mol]
  Total sSAPT0                    -23.83450544 [mEh]     -14.95637797 [kcal/mol]     -62.57748541 [kJ/mol]
  --------------------------------------------------------------------------------------------------------

*** Psi4 exiting successfully. Buy a developer a beer!
