                               Psi4 1.9 release

  ==> Input File <==

--------------------------------------------------------------------------
MEMORY 60 GB

molecule dimer {
0 1
O      0.000000     0.000000     0.000000
H     -0.125130     0.954754     0.000000
H     -0.889406    -0.369011     0.000000
--
1 1
Li     1.828878     0.000000     0.000000

units ang
no_reorient
no_com
symmetry c1
}

set {
basis        aug-cc-pVTZ
scf_type     df
}

energy("sapt2+")
--------------------------------------------------------------------------

  //              Dimer HF             //
    Molecular point group: c1
  Charge       = 1
  Multiplicity = 1
  Basis Set: AUG-CC-PVTZ
    Blend: AUG-CC-PVTZ
  Basis Set: (AUG-CC-PVTZ AUX)
    Blend: AUG-CC-PVTZ-JKFIT + DEF2-UNIVERSAL-JKFIT
  @DF-RHF Final Energy:   -83.34529540263254
    Total Energy =                        -83.3452954026325443
 Dipole X            :         -6.1399571            8.4510404            2.3110833
 Dipole Y            :         -0.7006577            1.1068938            0.4062361
 Dipole Z            :          0.0000000            0.0000000            0.0000000
 Magnitude           :                                                    2.3465153
  //            Monomer A HF           //
    Molecular point group: c1
  Multiplicity = 1
  Basis Set: AUG-CC-PVTZ
    Blend: AUG-CC-PVTZ
  Basis Set: (AUG-CC-PVTZ AUX)
    Blend: AUG-CC-PVTZ-JKFIT + DEF2-UNIVERSAL-JKFIT
  @DF-RHF Final Energy:   -76.06025574345412
    Total Energy =                        -76.0602557434541211
  //            Monomer B HF           //
    Molecular point group: c1

    Geometry (in Angstrom), charge = 1, multiplicity = 1:

       Center              X                  Y                   Z               Mass
    ------------   -----------------  -----------------  -----------------  -----------------
      Gh(O)           0.000000000000     0.000000000000     0.000000000000    15.994914619570
      Gh(H)          -0.125130000000     0.954754000000     0.000000000000     1.007825032230
      Gh(H)          -0.889406000000    -0.369011000000     0.000000000000     1.007825032230
         LI           1.828878000000     0.000000000000     0.000000000000     7.016003436600

  Charge       = 1
  Multiplicity = 1
  Basis Set: AUG-CC-PVTZ
    Blend: AUG-CC-PVTZ
  Basis Set: (AUG-CC-PVTZ AUX)
    Blend: AUG-CC-PVTZ-JKFIT + DEF2-UNIVERSAL-JKFIT

    Orbital Energies [Eh]
    ---------------------

    Doubly Occupied:

       1A     -2.792367

  @DF-RHF Final Energy:    -7.23638366143867

   => Energetics <=

    Nuclear Repulsion Energy =              0.0000000000000000
    One-Electron Energy =                  -8.8880339720628587
    Two-Electron Energy =                   1.6516503106241847
    Total Energy =                         -7.2363836614386745
 Dipole X            :         -6.9121779           10.3682356            3.4560577
 Dipole Y            :         -0.0000031            0.0000000           -0.0000031
 Dipole Z            :          0.0000000            0.0000000            0.0000000
 Magnitude           :                                                    3.4560577

    SAPT Results
  --------------------------------------------------------------------------------------------------------
    Electrostatics                -42.73202723 [mEh]     -26.81475192 [kcal/mol]    -112.19292203 [kJ/mol]
      Elst10,r                    -46.33187979 [mEh]     -29.07369351 [kcal/mol]    -121.64433363 [kJ/mol]
      Elst12,r                      3.59985256 [mEh]       2.25894159 [kcal/mol]       9.45141160 [kJ/mol]

    Exchange                       19.23404574 [mEh]      12.06954592 [kcal/mol]      50.49898015 [kJ/mol]
      Exch10                       18.06995208 [mEh]      11.33906612 [kcal/mol]      47.44265265 [kJ/mol]
      Exch10(S^2)                  17.98451008 [mEh]      11.28545046 [kcal/mol]      47.21832471 [kJ/mol]
      Exch11(S^2)                  -0.05223254 [mEh]      -0.03277641 [kcal/mol]      -0.13713650 [kJ/mol]
      Exch12(S^2)                   1.21632620 [mEh]       0.76325621 [kcal/mol]       3.19346400 [kJ/mol]

    Induction                     -21.97361178 [mEh]     -13.78864956 [kcal/mol]     -57.69170977 [kJ/mol]
      Ind20,r                     -31.96606949 [mEh]     -20.05901144 [kcal/mol]     -83.92690388 [kJ/mol]
      Ind22                        -2.66086255 [mEh]      -1.66971646 [kcal/mol]      -6.98609365 [kJ/mol]
      Exch-Ind20,r                 12.99036508 [mEh]       8.15157716 [kcal/mol]      34.10619883 [kJ/mol]
      Exch-Ind22                    1.08132080 [mEh]       0.67853905 [kcal/mol]       2.83900738 [kJ/mol]
      delta HF,r (2)               -1.41836562 [mEh]      -0.89003787 [kcal/mol]      -3.72391843 [kJ/mol]

    Dispersion                     -0.92076641 [mEh]      -0.57778964 [kcal/mol]      -2.41747187 [kJ/mol]
      Disp20                       -0.90352392 [mEh]      -0.56696982 [kcal/mol]      -2.37220172 [kJ/mol]
      Disp21                       -0.03842019 [mEh]      -0.02410903 [kcal/mol]      -0.10087219 [kJ/mol]
      Disp22 (SDQ)                 -0.01231597 [mEh]      -0.00772839 [kcal/mol]      -0.03233558 [kJ/mol]
      Disp22 (T)                   -0.04514863 [mEh]      -0.02833119 [kcal/mol]      -0.11853771 [kJ/mol]
      Est. Disp22 (T)              -0.05842398 [mEh]      -0.03666160 [kcal/mol]      -0.15339213 [kJ/mol]
      Exch-Disp20                   0.09191765 [mEh]       0.05767919 [kcal/mol]       0.24132975 [kJ/mol]

  Total HF                        -48.65599774 [mEh]     -30.53209954 [kcal/mol]    -127.74630447 [kJ/mol]
  Total SAPT0                     -49.46760401 [mEh]     -31.04139016 [kcal/mol]    -129.87717644 [kJ/mol]
  Total SAPT2                     -46.28319953 [mEh]     -29.04314618 [kcal/mol]    -121.51652362 [kJ/mol]
  Total SAPT2+                    -46.39235966 [mEh]     -29.11164520 [kcal/mol]    -121.80312352 [kJ/mol]

  Special recipe for scaled SAPT0 (see Manual):
    Electrostatics sSAPT0         -46.33187979 [mEh]     -29.07369351 [kcal/mol]    -121.64433363 [kJ/mol]
    Exchange sSAPT0                18.06995208 [mEh]      11.33906612 [kcal/mol]      47.44265265 [kJ/mol]
    Induction sSAPT0              -20.20804257 [mEh]     -12.68073816 [kcal/mol]     -53.05620846 [kJ/mol]
    Dispersion sSAPT0              -0.81028997 [mEh]      -0.50846463 [kcal/mol]      -2.12741603 [kJ/mol]
  Total sSAPT0                    -49.28026025 [mEh]     -30.92383018 [kcal/mol]    -129.38530547 [kJ/mol]
  --------------------------------------------------------------------------------------------------------

*** Psi4 exiting successfully. Buy a developer a beer!
