                               Psi4 1.9 release

  ==> Input File <==

--------------------------------------------------------------------------
MEMORY 60 GB

molecule dimer {
0 1
O      0.000000     0.000000     0.000000
H      0.121965     0.953626     0.000000
H     -0.953626    -0.121965     0.000000
--
1 1
Na     2.158940     0.000000     0.000000

units ang
no_reorient
no_com
symmetry c1
}

set {
basis        aug-cc-pVTZ
scf_type     df
}

energy("sapt2+")
--------------------------------------------------------------------------

  //              Dimer HF             //
    Molecular point group: c1
  Charge       = 1
  Multiplicity = 1
  Basis Set: AUG-CC-PVTZ
    Blend: AUG-CC-PVTZ
  Basis Set: (AUG-CC-PVTZ AUX)
    Blend: AUG-CC-PVTZ-JKFIT + DEF2-UNIVERSAL-JKFIT
  @DF-RHF Final Energy:  -237.76055292363807
    Total Energy =                       -237.7605529236380733
 Dipole X            :        -40.1382691           43.3062470            3.1679779
 Dipole Y            :         -1.0100730            1.5716115            0.5615385
 Dipole Z            :         -0.0000000            0.0000000           -0.0000000
 Magnitude           :                                                    3.2173607
  //            Monomer A HF           //
    Molecular point group: c1
  Multiplicity = 1
  Basis Set: AUG-CC-PVTZ
    Blend: AUG-CC-PVTZ
  Basis Set: (AUG-CC-PVTZ AUX)
    Blend: AUG-CC-PVTZ-JKFIT + DEF2-UNIVERSAL-JKFIT
  @DF-RHF Final Energy:   -76.06035113321217
    Total Energy =                        -76.0603511332121798
  //            Monomer B HF           //
    Molecular point group: c1

    Geometry (in Angstrom), charge = 1, multiplicity = 1:

       Center              X                  Y                   Z               Mass
    ------------   -----------------  -----------------  -----------------  -----------------
      Gh(O)           0.000000000000     0.000000000000     0.000000000000    15.994914619570
      Gh(H)           0.121965000000     0.953626000000     0.000000000000     1.007825032230
      Gh(H)          -0.953626000000    -0.121965000000     0.000000000000     1.007825032230
         NA           2.158940000000     0.000000000000     0.000000000000    22.989769282000

  Charge       = 1
  Multiplicity = 1
  Basis Set: AUG-CC-PVTZ
    Blend: AUG-CC-PVTZ
  Basis Set: (AUG-CC-PVTZ AUX)
    Blend: AUG-CC-PVTZ-JKFIT + DEF2-UNIVERSAL-JKFIT

    Orbital Energies [Eh]
    ---------------------

    Doubly Occupied:

       1A    -40.762666     2A     -3.074838     3A     -1.798138
       4A     -1.798035     5A     -1.797973

  @DF-RHF Final Energy:  -161.67604534033904

   => Energetics <=

    Nuclear Repulsion Energy =              0.0000000000000000
    One-Electron Energy =                -224.8887885179641444
    Two-Electron Energy =                  63.2127431776251001
    Total Energy =                       -161.6760453403390443
 Dipole X            :        -40.7986819           44.8778585            4.0791766
 Dipole Y            :          0.0000384            0.0000000            0.0000384
 Dipole Z            :          0.0000000            0.0000000            0.0000000
 Magnitude           :                                                    4.0791766

    SAPT Results
  --------------------------------------------------------------------------------------------------------
    Electrostatics                -26.55438056 [mEh]     -16.66312537 [kcal/mol]     -69.71851656 [kJ/mol]
      Elst10,r                    -28.45688995 [mEh]     -17.85696804 [kcal/mol]     -74.71355428 [kJ/mol]
      Elst12,r                      1.90250939 [mEh]       1.19384267 [kcal/mol]       4.99503772 [kJ/mol]

    Exchange                       15.47553454 [mEh]       9.71104453 [kcal/mol]      40.63101033 [kJ/mol]
      Exch10                       14.22420748 [mEh]       8.92582495 [kcal/mol]      37.34565160 [kJ/mol]
      Exch10(S^2)                  14.16913299 [mEh]       8.89126519 [kcal/mol]      37.20105355 [kJ/mol]
      Exch11(S^2)                  -0.13176549 [mEh]      -0.08268409 [kcal/mol]      -0.34595023 [kJ/mol]
      Exch12(S^2)                   1.38309254 [mEh]       0.86790367 [kcal/mol]       3.63130896 [kJ/mol]

    Induction                     -11.17295945 [mEh]      -7.01113791 [kcal/mol]     -29.33460099 [kJ/mol]
      Ind20,r                     -23.91395736 [mEh]     -15.00623480 [kcal/mol]     -62.78608641 [kJ/mol]
      Ind22                        -2.68905058 [mEh]      -1.68740471 [kcal/mol]      -7.06010132 [kJ/mol]
      Exch-Ind20,r                 12.80478725 [mEh]       8.03512531 [kcal/mol]      33.61896430 [kJ/mol]
      Exch-Ind22                    1.43985874 [mEh]       0.90352500 [kcal/mol]       3.78034860 [kJ/mol]
      delta HF,r (2)                1.18540250 [mEh]       0.74385130 [kcal/mol]       3.11227383 [kJ/mol]

    Dispersion                     -0.88800121 [mEh]      -0.55722917 [kcal/mol]      -2.33144687 [kJ/mol]
      Disp20                       -0.90021029 [mEh]      -0.56489049 [kcal/mol]      -2.36350180 [kJ/mol]
      Disp21                       -0.02300262 [mEh]      -0.01443436 [kcal/mol]      -0.06039337 [kJ/mol]
      Disp22 (SDQ)                 -0.04562698 [mEh]      -0.02863136 [kcal/mol]      -0.11979361 [kJ/mol]
      Disp22 (T)                   -0.06332294 [mEh]      -0.03973575 [kcal/mol]      -0.16625436 [kJ/mol]
      Est. Disp22 (T)              -0.07689505 [mEh]      -0.04825237 [kcal/mol]      -0.20188793 [kJ/mol]
      Exch-Disp20                   0.15773373 [mEh]       0.09897941 [kcal/mol]       0.41412984 [kJ/mol]

  Total HF                        -24.15645009 [mEh]     -15.15840128 [kcal/mol]     -63.42275097 [kJ/mol]
  Total SAPT0                     -24.89892665 [mEh]     -15.62431236 [kcal/mol]     -65.37212292 [kJ/mol]
  Total SAPT2                     -22.99428204 [mEh]     -14.42912982 [kcal/mol]     -60.37147918 [kJ/mol]
  Total SAPT2+                    -23.13980669 [mEh]     -14.52044792 [kcal/mol]     -60.75355409 [kJ/mol]

  Special recipe for scaled SAPT0 (see Manual):
    Electrostatics sSAPT0         -28.45688995 [mEh]     -17.85696804 [kcal/mol]     -74.71355428 [kJ/mol]
    Exchange sSAPT0                14.22420748 [mEh]       8.92582495 [kcal/mol]      37.34565160 [kJ/mol]
    Induction sSAPT0               -9.77387239 [mEh]      -6.13319752 [kcal/mol]     -25.66129841 [kJ/mol]
    Dispersion sSAPT0              -0.74063010 [mEh]      -0.46475241 [kcal/mol]      -1.94452407 [kJ/mol]
  Total sSAPT0                    -24.74718496 [mEh]     -15.52909301 [kcal/mol]     -64.97372517 [kJ/mol]
  --------------------------------------------------------------------------------------------------------

*** Psi4 exiting successfully. Buy a developer a beer!
