                               Psi4 1.9 release

  ==> Input File <==

--------------------------------------------------------------------------
MEMORY 60 GB

molecule dimer {
0 1
O      0.000000     0.000000     0.000000
H     -0.764882     0.582438     0.000000
H     -0.371188    -0.886847     0.000000
--
1 1
Na     2.158940     0.000000     0.000000

units ang
no_reorient
no_com
symmetry c1
}

set {
basis        aug-cc-pVTZ
scf_type     df
}

energy("sapt2+")
--------------------------------------------------------------------------

  //              Dimer HF             //
    Molecular point group: c1
  Charge       = 1
  Multiplicity = 1
  Basis Set: AUG-CC-PVTZ
    Blend: AUG-CC-PVTZ
  Basis Set: (AUG-CC-PVTZ AUX)
    Blend: AUG-CC-PVTZ-JKFIT + DEF2-UNIVERSAL-JKFIT
  @DF-RHF Final Energy:  -237.77288765876742
    Total Energy =                       -237.7728876587674165
 Dipole X            :        -39.7582189           42.7309974            2.9727785
 Dipole Y            :          0.3673501           -0.5752496           -0.2078995
 Dipole Z            :         -0.0000000            0.0000000           -0.0000000
 Magnitude           :                                                    2.9800393
  //            Monomer A HF           //
    Molecular point group: c1
  Multiplicity = 1
  Basis Set: AUG-CC-PVTZ
    Blend: AUG-CC-PVTZ
  Basis Set: (AUG-CC-PVTZ AUX)
    Blend: AUG-CC-PVTZ-JKFIT + DEF2-UNIVERSAL-JKFIT
  @DF-RHF Final Energy:   -76.06036663448745
    Total Energy =                        -76.0603666344874512
  //            Monomer B HF           //
    Molecular point group: c1

    Geometry (in Angstrom), charge = 1, multiplicity = 1:

       Center              X                  Y                   Z               Mass
    ------------   -----------------  -----------------  -----------------  -----------------
      Gh(O)           0.000000000000     0.000000000000     0.000000000000    15.994914619570
      Gh(H)          -0.764882000000     0.582438000000     0.000000000000     1.007825032230
      Gh(H)          -0.371188000000    -0.886847000000     0.000000000000     1.007825032230
         NA           2.158940000000     0.000000000000     0.000000000000    22.989769282000

  Charge       = 1
  Multiplicity = 1
  Basis Set: AUG-CC-PVTZ
    Blend: AUG-CC-PVTZ
  Basis Set: (AUG-CC-PVTZ AUX)
    Blend: AUG-CC-PVTZ-JKFIT + DEF2-UNIVERSAL-JKFIT

    Orbital Energies [Eh]
    ---------------------

    Doubly Occupied:

       1A    -40.762606     2A     -3.074826     3A     -1.798147
       4A     -1.798016     5A     -1.797952

  @DF-RHF Final Energy:  -161.67604451610575

   => Energetics <=

    Nuclear Repulsion Energy =              0.0000000000000000
    One-Electron Energy =                -224.8889940144016464
    Two-Electron Energy =                  63.2129494982958988
    Total Energy =                       -161.6760445161057476
 Dipole X            :        -40.7986117           44.8778585            4.0792468
 Dipole Y            :         -0.0000081            0.0000000           -0.0000081
 Dipole Z            :         -0.0000000            0.0000000           -0.0000000
 Magnitude           :                                                    4.0792468

    SAPT Results
  --------------------------------------------------------------------------------------------------------
    Electrostatics                -40.85537952 [mEh]     -25.63713770 [kcal/mol]    -107.26578414 [kJ/mol]
      Elst10,r                    -43.18775444 [mEh]     -27.10072506 [kcal/mol]    -113.38943365 [kJ/mol]
      Elst12,r                      2.33237492 [mEh]       1.46358736 [kcal/mol]       6.12364951 [kJ/mol]

    Exchange                       17.76225425 [mEh]      11.14598281 [kcal/mol]      46.63479210 [kJ/mol]
      Exch10                       16.43197067 [mEh]      10.31121727 [kcal/mol]      43.14213306 [kJ/mol]
      Exch10(S^2)                  16.35481580 [mEh]      10.26280186 [kcal/mol]      42.93956296 [kJ/mol]
      Exch11(S^2)                  -0.11966153 [mEh]      -0.07508875 [kcal/mol]      -0.31417132 [kJ/mol]
      Exch12(S^2)                   1.44994511 [mEh]       0.90985429 [kcal/mol]       3.80683036 [kJ/mol]

    Induction                     -10.94143615 [mEh]      -6.86585484 [kcal/mol]     -28.72673665 [kJ/mol]
      Ind20,r                     -27.19049103 [mEh]     -17.06229072 [kcal/mol]     -71.38862435 [kJ/mol]
      Ind22                        -2.94891681 [mEh]      -1.85047324 [kcal/mol]      -7.74238002 [kJ/mol]
      Exch-Ind20,r                 15.93491696 [mEh]       9.99931135 [kcal/mol]      41.83711871 [kJ/mol]
      Exch-Ind22                    1.72820507 [mEh]       1.08446505 [kcal/mol]       4.53740179 [kJ/mol]
      delta HF,r (2)                1.53484966 [mEh]       0.96313270 [kcal/mol]       4.02974722 [kJ/mol]

    Dispersion                     -0.84947004 [mEh]      -0.53305050 [kcal/mol]      -2.23028329 [kJ/mol]
      Disp20                       -0.87591349 [mEh]      -0.54964401 [kcal/mol]      -2.29971056 [kJ/mol]
      Disp21                       -0.02411060 [mEh]      -0.01512963 [kcal/mol]      -0.06330238 [kJ/mol]
      Disp22 (SDQ)                 -0.04674141 [mEh]      -0.02933068 [kcal/mol]      -0.12271956 [kJ/mol]
      Disp22 (T)                   -0.06264389 [mEh]      -0.03930963 [kcal/mol]      -0.16447151 [kJ/mol]
      Est. Disp22 (T)              -0.07583081 [mEh]      -0.04758455 [kcal/mol]      -0.19909377 [kJ/mol]
      Exch-Disp20                   0.17312628 [mEh]       0.10863838 [kcal/mol]       0.45454297 [kJ/mol]

  Total HF                        -36.47650817 [mEh]     -22.88935445 [kcal/mol]     -95.76905902 [kJ/mol]
  Total SAPT0                     -37.17929539 [mEh]     -23.33036009 [kcal/mol]     -97.61422660 [kJ/mol]
  Total SAPT2                     -34.73734864 [mEh]     -21.79801536 [kcal/mol]     -91.20289628 [kJ/mol]
  Total SAPT2+                    -34.88403146 [mEh]     -21.89006023 [kcal/mol]     -91.58801199 [kJ/mol]

  Special recipe for scaled SAPT0 (see Manual):
    Electrostatics sSAPT0         -43.18775444 [mEh]     -27.10072506 [kcal/mol]    -113.38943365 [kJ/mol]
    Exchange sSAPT0                16.43197067 [mEh]      10.31121727 [kcal/mol]      43.14213306 [kJ/mol]
    Induction sSAPT0               -9.49413690 [mEh]      -5.95766085 [kcal/mol]     -24.92685300 [kJ/mol]
    Dispersion sSAPT0              -0.70032544 [mEh]      -0.43946085 [kcal/mol]      -1.83870418 [kJ/mol]
  Total sSAPT0                    -36.95024610 [mEh]     -23.18662949 [kcal/mol]     -97.01285777 [kJ/mol]
  --------------------------------------------------------------------------------------------------------

*** Psi4 exiting successfully. Buy a developer a beer!
