                               Psi4 1.9 release

  ==> Input File <==

--------------------------------------------------------------------------
MEMORY 60 GB

molecule dimer {
0 1
O      0.000000     0.000000     0.000000
H     -0.129007     0.952699     0.000000
H     -0.889565    -0.364626     0.000000
--
1 1
Na     2.158940     0.000000     0.000000

units ang
no_reorient
no_com
symmetry c1
}

set {
basis        aug-cc-pVTZ
scf_type     df
}

energy("sapt2+")
--------------------------------------------------------------------------

  //              Dimer HF             //
    Molecular point group: c1
  Charge       = 1
  Multiplicity = 1
  Basis Set: AUG-CC-PVTZ
    Blend: AUG-CC-PVTZ
  Basis Set: (AUG-CC-PVTZ AUX)
    Blend: AUG-CC-PVTZ-JKFIT + DEF2-UNIVERSAL-JKFIT
  @DF-RHF Final Energy:  -237.76835512798220
    Total Energy =                       -237.7683551279822041
 Dipole X            :        -39.9041403           42.9530364            3.0488961
 Dipole Y            :         -0.7113060            1.1112969            0.3999909
 Dipole Z            :         -0.0000000            0.0000000           -0.0000000
 Magnitude           :                                                    3.0750220
  //            Monomer A HF           //
    Molecular point group: c1
  Multiplicity = 1
  Basis Set: AUG-CC-PVTZ
    Blend: AUG-CC-PVTZ
  Basis Set: (AUG-CC-PVTZ AUX)
    Blend: AUG-CC-PVTZ-JKFIT + DEF2-UNIVERSAL-JKFIT
  @DF-RHF Final Energy:   -76.06035802679321
    Total Energy =                        -76.0603580267932102
  //            Monomer B HF           //
    Molecular point group: c1

    Geometry (in Angstrom), charge = 1, multiplicity = 1:

       Center              X                  Y                   Z               Mass
    ------------   -----------------  -----------------  -----------------  -----------------
      Gh(O)           0.000000000000     0.000000000000     0.000000000000    15.994914619570
      Gh(H)          -0.129007000000     0.952699000000     0.000000000000     1.007825032230
      Gh(H)          -0.889565000000    -0.364626000000     0.000000000000     1.007825032230
         NA           2.158940000000     0.000000000000     0.000000000000    22.989769282000

  Charge       = 1
  Multiplicity = 1
  Basis Set: AUG-CC-PVTZ
    Blend: AUG-CC-PVTZ
  Basis Set: (AUG-CC-PVTZ AUX)
    Blend: AUG-CC-PVTZ-JKFIT + DEF2-UNIVERSAL-JKFIT

    Orbital Energies [Eh]
    ---------------------

    Doubly Occupied:

       1A    -40.762605     2A     -3.074818     3A     -1.798135
       4A     -1.798010     5A     -1.797949

  @DF-RHF Final Energy:  -161.67604483122028

   => Energetics <=

    Nuclear Repulsion Energy =              0.0000000000000000
    One-Electron Energy =                -224.8890532450733701
    Two-Electron Energy =                  63.2130084138530748
    Total Energy =                       -161.6760448312202811
 Dipole X            :        -40.7986687           44.8778585            4.0791898
 Dipole Y            :          0.0000304            0.0000000            0.0000304
 Dipole Z            :          0.0000000            0.0000000            0.0000000
 Magnitude           :                                                    4.0791898

    SAPT Results
  --------------------------------------------------------------------------------------------------------
    Electrostatics                -35.41218563 [mEh]     -22.22148197 [kcal/mol]     -92.97468056 [kJ/mol]
      Elst10,r                    -37.55732819 [mEh]     -23.56757925 [kcal/mol]     -98.60675159 [kJ/mol]
      Elst12,r                      2.14514257 [mEh]       1.34609728 [kcal/mol]       5.63207103 [kJ/mol]

    Exchange                       16.68472369 [mEh]      10.46982218 [kcal/mol]      43.80573602 [kJ/mol]
      Exch10                       15.37651209 [mEh]       9.64890701 [kcal/mol]      40.37102693 [kJ/mol]
      Exch10(S^2)                  15.30994707 [mEh]       9.60713683 [kcal/mol]      40.19626048 [kJ/mol]
      Exch11(S^2)                  -0.12399149 [mEh]      -0.07780583 [kcal/mol]      -0.32553961 [kJ/mol]
      Exch12(S^2)                   1.43220309 [mEh]       0.89872101 [kcal/mol]       3.76024870 [kJ/mol]

    Induction                     -11.00902555 [mEh]      -6.90826783 [kcal/mol]     -28.90419259 [kJ/mol]
      Ind20,r                     -25.74722358 [mEh]     -16.15662672 [kcal/mol]     -67.59932621 [kJ/mol]
      Ind22                        -2.85586072 [mEh]      -1.79207966 [kcal/mol]      -7.49806128 [kJ/mol]
      Exch-Ind20,r                 14.58980452 [mEh]       9.15524056 [kcal/mol]      38.30552649 [kJ/mol]
      Exch-Ind22                    1.61828903 [mEh]       1.01549170 [kcal/mol]       4.24881727 [kJ/mol]
      delta HF,r (2)                1.38596520 [mEh]       0.86970629 [kcal/mol]       3.63885113 [kJ/mol]

    Dispersion                     -0.86263248 [mEh]      -0.54131005 [kcal/mol]      -2.26484125 [kJ/mol]
      Disp20                       -0.88312074 [mEh]      -0.55416663 [kcal/mol]      -2.31863317 [kJ/mol]
      Disp21                       -0.02300651 [mEh]      -0.01443680 [kcal/mol]      -0.06040358 [kJ/mol]
      Disp22 (SDQ)                 -0.04638531 [mEh]      -0.02910722 [kcal/mol]      -0.12178462 [kJ/mol]
      Disp22 (T)                   -0.06297354 [mEh]      -0.03951650 [kcal/mol]      -0.16533702 [kJ/mol]
      Est. Disp22 (T)              -0.07603354 [mEh]      -0.04771177 [kcal/mol]      -0.19962604 [kJ/mol]
      Exch-Disp20                   0.16591362 [mEh]       0.10411237 [kcal/mol]       0.43560616 [kJ/mol]

  Total HF                        -31.95226997 [mEh]     -20.05035211 [kcal/mol]     -83.89067325 [kJ/mol]
  Total SAPT0                     -32.66947708 [mEh]     -20.50040637 [kcal/mol]     -85.77370026 [kJ/mol]
  Total SAPT2                     -30.45369459 [mEh]     -19.10998187 [kcal/mol]     -79.95616414 [kJ/mol]
  Total SAPT2+                    -30.59911996 [mEh]     -19.20123766 [kcal/mol]     -80.33797838 [kJ/mol]

  Special recipe for scaled SAPT0 (see Manual):
    Electrostatics sSAPT0         -37.55732819 [mEh]     -23.56757925 [kcal/mol]     -98.60675159 [kJ/mol]
    Exchange sSAPT0                15.37651209 [mEh]       9.64890701 [kcal/mol]      40.37102693 [kJ/mol]
    Induction sSAPT0               -9.58032337 [mEh]      -6.01174367 [kcal/mol]     -25.15313553 [kJ/mol]
    Dispersion sSAPT0              -0.71503360 [mEh]      -0.44869036 [kcal/mol]      -1.87732045 [kJ/mol]
  Total sSAPT0                    -32.47617307 [mEh]     -20.37910627 [kcal/mol]     -85.26618064 [kJ/mol]
  --------------------------------------------------------------------------------------------------------

*** Psi4 exiting successfully. Buy a developer a beer!
