                               Psi4 1.9 release

  ==> Input File <==

--------------------------------------------------------------------------
MEMORY 60 GB

molecule dimer {
0 1
O      0.000000     0.000000     0.000000
H      0.364626     0.889565     0.000000
H     -0.952699     0.129007     0.000000
--
1 1
Na     2.158940     0.000000     0.000000

units ang
no_reorient
no_com
symmetry c1
}

set {
basis        aug-cc-pVTZ
scf_type     df
}

energy("sapt2+")
--------------------------------------------------------------------------

  //              Dimer HF             //
    Molecular point group: c1
  Charge       = 1
  Multiplicity = 1
  Basis Set: AUG-CC-PVTZ
    Blend: AUG-CC-PVTZ
  Basis Set: (AUG-CC-PVTZ AUX)
    Blend: AUG-CC-PVTZ-JKFIT + DEF2-UNIVERSAL-JKFIT
  @DF-RHF Final Energy:  -237.74862818257208
    Total Energy =                       -237.7486281825720766
 Dipole X            :        -40.4470813           43.7665616            3.3194803
 Dipole Y            :         -1.2437503            1.9248221            0.6810718
 Dipole Z            :          0.0000000            0.0000000            0.0000000
 Magnitude           :                                                    3.3886293
  //            Monomer A HF           //
    Molecular point group: c1
  Multiplicity = 1
  Basis Set: AUG-CC-PVTZ
    Blend: AUG-CC-PVTZ
  Basis Set: (AUG-CC-PVTZ AUX)
    Blend: AUG-CC-PVTZ-JKFIT + DEF2-UNIVERSAL-JKFIT
  @DF-RHF Final Energy:   -76.06035328641347
    Total Energy =                        -76.0603532864134593
  //            Monomer B HF           //
    Molecular point group: c1

    Geometry (in Angstrom), charge = 1, multiplicity = 1:

       Center              X                  Y                   Z               Mass
    ------------   -----------------  -----------------  -----------------  -----------------
      Gh(O)           0.000000000000     0.000000000000     0.000000000000    15.994914619570
      Gh(H)           0.364626000000     0.889565000000     0.000000000000     1.007825032230
      Gh(H)          -0.952699000000     0.129007000000     0.000000000000     1.007825032230
         NA           2.158940000000     0.000000000000     0.000000000000    22.989769282000

  Charge       = 1
  Multiplicity = 1
  Basis Set: AUG-CC-PVTZ
    Blend: AUG-CC-PVTZ
  Basis Set: (AUG-CC-PVTZ AUX)
    Blend: AUG-CC-PVTZ-JKFIT + DEF2-UNIVERSAL-JKFIT

    Orbital Energies [Eh]
    ---------------------

    Doubly Occupied:

       1A    -40.762583     2A     -3.074805     3A     -1.798099
       4A     -1.798021     5A     -1.797939

  @DF-RHF Final Energy:  -161.67604751806215

   => Energetics <=

    Nuclear Repulsion Energy =              0.0000000000000000
    One-Electron Energy =                -224.8891984404884852
    Two-Electron Energy =                  63.2131509224263652
    Total Energy =                       -161.6760475180621199
 Dipole X            :        -40.7986618           44.8778585            4.0791967
 Dipole Y            :          0.0001000            0.0000000            0.0001000
 Dipole Z            :         -0.0000000            0.0000000           -0.0000000
 Magnitude           :                                                    4.0791967

    SAPT Results
  --------------------------------------------------------------------------------------------------------
    Electrostatics                -14.43047645 [mEh]      -9.05526068 [kcal/mol]     -37.88721069 [kJ/mol]
      Elst10,r                    -16.06539417 [mEh]     -10.08118704 [kcal/mol]     -42.17968657 [kJ/mol]
      Elst12,r                      1.63491772 [mEh]       1.02592636 [kcal/mol]       4.29247588 [kJ/mol]

    Exchange                       15.38542854 [mEh]       9.65450217 [kcal/mol]      40.39443708 [kJ/mol]
      Exch10                       14.19582787 [mEh]       8.90801647 [kcal/mol]      37.27114093 [kJ/mol]
      Exch10(S^2)                  14.14384400 [mEh]       8.87539611 [kcal/mol]      37.13465732 [kJ/mol]
      Exch11(S^2)                  -0.14900160 [mEh]      -0.09349991 [kcal/mol]      -0.39120364 [kJ/mol]
      Exch12(S^2)                   1.33860227 [mEh]       0.83998561 [kcal/mol]       3.51449979 [kJ/mol]

    Induction                     -11.58757099 [mEh]      -7.27131058 [kcal/mol]     -30.42316345 [kJ/mol]
      Ind20,r                     -23.10679259 [mEh]     -14.49973126 [kcal/mol]     -60.66687558 [kJ/mol]
      Ind22                        -2.49473686 [mEh]      -1.56547101 [kcal/mol]      -6.54993072 [kJ/mol]
      Exch-Ind20,r                 11.71649683 [mEh]       7.35221276 [kcal/mol]      30.76165818 [kJ/mol]
      Exch-Ind22                    1.26497766 [mEh]       0.79378547 [kcal/mol]       3.32119840 [kJ/mol]
      delta HF,r (2)                1.03248396 [mEh]       0.64789347 [kcal/mol]       2.71078627 [kJ/mol]

    Dispersion                     -0.96341703 [mEh]      -0.60455331 [kcal/mol]      -2.52945105 [kJ/mol]
      Disp20                       -0.96730935 [mEh]      -0.60699578 [kcal/mol]      -2.53967036 [kJ/mol]
      Disp21                       -0.02842907 [mEh]      -0.01783951 [kcal/mol]      -0.07464052 [kJ/mol]
      Disp22 (SDQ)                 -0.04657224 [mEh]      -0.02922452 [kcal/mol]      -0.12227541 [kJ/mol]
      Disp22 (T)                   -0.06866342 [mEh]      -0.04308694 [kcal/mol]      -0.18027577 [kJ/mol]
      Est. Disp22 (T)              -0.08340964 [mEh]      -0.05234034 [kcal/mol]      -0.21899199 [kJ/mol]
      Exch-Disp20                   0.16230329 [mEh]       0.10184685 [kcal/mol]       0.42612723 [kJ/mol]

  Total HF                        -12.22737810 [mEh]      -7.67279559 [kcal/mol]     -32.10297677 [kJ/mol]
  Total SAPT0                     -13.03238416 [mEh]      -8.17794453 [kcal/mol]     -34.21651990 [kJ/mol]
  Total SAPT2                     -11.43762496 [mEh]      -7.17721802 [kcal/mol]     -30.02948019 [kJ/mol]
  Total SAPT2+                    -11.59603592 [mEh]      -7.27662240 [kcal/mol]     -30.44538811 [kJ/mol]

  Special recipe for scaled SAPT0 (see Manual):
    Electrostatics sSAPT0         -16.06539417 [mEh]     -10.08118704 [kcal/mol]     -42.17968657 [kJ/mol]
    Exchange sSAPT0                14.19582787 [mEh]       8.90801647 [kcal/mol]      37.27114093 [kJ/mol]
    Induction sSAPT0              -10.22814902 [mEh]      -6.41826041 [kcal/mol]     -26.85400154 [kJ/mol]
    Dispersion sSAPT0              -0.80320991 [mEh]      -0.50402183 [kcal/mol]      -2.10882732 [kJ/mol]
  Total sSAPT0                    -12.90092522 [mEh]      -8.09545280 [kcal/mol]     -33.87137451 [kJ/mol]
  --------------------------------------------------------------------------------------------------------

*** Psi4 exiting successfully. Buy a developer a beer!
