                               Psi4 1.9 release

  ==> Input File <==

--------------------------------------------------------------------------
MEMORY 60 GB

molecule dimer {
0 1
O      0.000000     0.000000     0.000000
H     -0.767618     0.577745     0.000000
H     -0.375905    -0.884151     0.000000
--
1 1
K      2.466222     0.000000     0.000000

units ang
no_reorient
no_com
symmetry c1
}

set {
basis        aug-cc-pVTZ
scf_type     df
}

energy("sapt2+")
--------------------------------------------------------------------------

  //              Dimer HF             //
    Molecular point group: c1
  Charge       = 1
  Multiplicity = 1
  Basis Set: AUG-CC-PVTZ
    Blend: AUG-CC-PVTZ
  Basis Set: (AUG-CC-PVTZ AUX)
    Blend: AUG-CC-PVTZ-JKFIT + DEF2-UNIVERSAL-JKFIT
  @DF-RHF Final Energy:  -675.10172858291776
    Total Energy =                       -675.1017285829176444
 Dipole X            :        -82.8702941           86.3882535            3.5179594
 Dipole Y            :          0.3823523           -0.5790234           -0.1966711
 Dipole Z            :         -0.0000000            0.0000000           -0.0000000
 Magnitude           :                                                    3.5234525
  //            Monomer A HF           //
    Molecular point group: c1
  Multiplicity = 1
  Basis Set: AUG-CC-PVTZ
    Blend: AUG-CC-PVTZ
  Basis Set: (AUG-CC-PVTZ AUX)
    Blend: AUG-CC-PVTZ-JKFIT + DEF2-UNIVERSAL-JKFIT
  @DF-RHF Final Energy:   -76.06033557276132
    Total Energy =                        -76.0603355727613177
  //            Monomer B HF           //
    Molecular point group: c1

    Geometry (in Angstrom), charge = 1, multiplicity = 1:

       Center              X                  Y                   Z               Mass
    ------------   -----------------  -----------------  -----------------  -----------------
      Gh(O)           0.000000000000     0.000000000000     0.000000000000    15.994914619570
      Gh(H)          -0.767618000000     0.577745000000     0.000000000000     1.007825032230
      Gh(H)          -0.375905000000    -0.884151000000     0.000000000000     1.007825032230
         K            2.466222000000     0.000000000000     0.000000000000    38.963706486400

  Charge       = 1
  Multiplicity = 1
  Basis Set: AUG-CC-PVTZ
    Blend: AUG-CC-PVTZ
  Basis Set: (AUG-CC-PVTZ AUX)
    Blend: AUG-CC-PVTZ-JKFIT + DEF2-UNIVERSAL-JKFIT

    Orbital Energies [Eh]
    ---------------------

    Doubly Occupied:

       1A   -133.753724     2A    -14.709170     3A    -11.739245
       4A    -11.739240     5A    -11.739239     6A     -1.964323
       7A     -1.170986     8A     -1.170916     9A     -1.170909

  @DF-RHF Final Energy:  -599.01750888304559

   => Energetics <=

    Nuclear Repulsion Energy =              0.0000000000000000
    One-Electron Energy =                -819.7195150787903231
    Two-Electron Energy =                 220.7020061957447865
    Total Energy =                       -599.0175088830455934
 Dipole X            :        -83.8891192           88.5491987            4.6600795
 Dipole Y            :         -0.0000505            0.0000000           -0.0000505
 Dipole Z            :          0.0000000            0.0000000            0.0000000
 Magnitude           :                                                    4.6600795

    SAPT Results
  --------------------------------------------------------------------------------------------------------
    Electrostatics                -35.17548180 [mEh]     -22.07294808 [kcal/mol]     -92.35321475 [kJ/mol]
      Elst10,r                    -36.40874664 [mEh]     -22.84683344 [kcal/mol]     -95.59115113 [kJ/mol]
      Elst12,r                      1.23326483 [mEh]       0.77388537 [kcal/mol]       3.23793638 [kJ/mol]

    Exchange                       22.55139725 [mEh]      14.15121542 [kcal/mol]      59.20868533 [kJ/mol]
      Exch10                       20.80970659 [mEh]      13.05828803 [kcal/mol]      54.63587713 [kJ/mol]
      Exch10(S^2)                  20.60895671 [mEh]      12.93231558 [kcal/mol]      54.10880838 [kJ/mol]
      Exch11(S^2)                   0.08813714 [mEh]       0.05530689 [kcal/mol]       0.23140404 [kJ/mol]
      Exch12(S^2)                   1.65355352 [mEh]       1.03762050 [kcal/mol]       4.34140416 [kJ/mol]

    Induction                      -9.36476002 [mEh]      -5.87647563 [kcal/mol]     -24.58717405 [kJ/mol]
      Ind20,r                     -24.14383763 [mEh]     -15.15048685 [kcal/mol]     -63.38963697 [kJ/mol]
      Ind22                        -3.39219638 [mEh]      -2.12863536 [kcal/mol]      -8.90621036 [kJ/mol]
      Exch-Ind20,r                 16.45930357 [mEh]      10.32836892 [kcal/mol]      43.21389558 [kJ/mol]
      Exch-Ind22                    2.31252342 [mEh]       1.45113035 [kcal/mol]       6.07152940 [kJ/mol]
      delta HF,r (2)               -0.60055300 [mEh]      -0.37685270 [kcal/mol]      -1.57675170 [kJ/mol]

    Dispersion                     -3.46653191 [mEh]      -2.17528161 [kcal/mol]      -9.10137827 [kJ/mol]
      Disp20                       -4.19239519 [mEh]      -2.63076770 [kcal/mol]     -11.00713205 [kJ/mol]
      Disp21                        0.50608826 [mEh]       0.31757518 [kcal/mol]       1.32873453 [kJ/mol]
      Disp22 (SDQ)                 -0.02885590 [mEh]      -0.01810735 [kcal/mol]      -0.07576115 [kJ/mol]
      Disp22 (T)                   -0.37776920 [mEh]      -0.23705375 [kcal/mol]      -0.99183291 [kJ/mol]
      Est. Disp22 (T)              -0.42469775 [mEh]      -0.26650186 [kcal/mol]      -1.11504378 [kJ/mol]
      Exch-Disp20                   0.67332867 [mEh]       0.42252012 [kcal/mol]       1.76782417 [kJ/mol]

  Total HF                        -23.88412711 [mEh]     -14.98751603 [kcal/mol]     -62.70776709 [kJ/mol]
  Total SAPT0                     -27.40319363 [mEh]     -17.19576362 [kcal/mol]     -71.94707497 [kJ/mol]
  Total SAPT2                     -25.50791109 [mEh]     -16.00645587 [kcal/mol]     -66.97101135 [kJ/mol]
  Total SAPT2+                    -25.45537648 [mEh]     -15.97348990 [kcal/mol]     -66.83308174 [kJ/mol]

  Special recipe for scaled SAPT0 (see Manual):
    Electrostatics sSAPT0         -36.40874664 [mEh]     -22.84683344 [kcal/mol]     -95.59115113 [kJ/mol]
    Exchange sSAPT0                20.80970659 [mEh]      13.05828803 [kcal/mol]      54.63587713 [kJ/mol]
    Induction sSAPT0               -7.79940109 [mEh]      -4.89419807 [kcal/mol]     -20.47732474 [kJ/mol]
    Dispersion sSAPT0              -3.49919774 [mEh]      -2.19577973 [kcal/mol]      -9.18714240 [kJ/mol]
  Total sSAPT0                    -26.89763888 [mEh]     -16.87852322 [kcal/mol]     -70.61974114 [kJ/mol]
  --------------------------------------------------------------------------------------------------------

*** Psi4 exiting successfully. Buy a developer a beer!
