                               Psi4 1.9 release

  ==> Input File <==

--------------------------------------------------------------------------
MEMORY 60 GB

molecule dimer {
0 1
O      0.000000     0.000000     0.000000
H      0.359385     0.890994     0.000000
H     -0.951316     0.134261     0.000000
--
1 1
K      2.466222     0.000000     0.000000

units ang
no_reorient
no_com
symmetry c1
}

set {
basis        aug-cc-pVTZ
scf_type     df
}

energy("sapt2+")
--------------------------------------------------------------------------

  //              Dimer HF             //
    Molecular point group: c1
  Charge       = 1
  Multiplicity = 1
  Basis Set: AUG-CC-PVTZ
    Blend: AUG-CC-PVTZ
  Basis Set: (AUG-CC-PVTZ AUX)
    Blend: AUG-CC-PVTZ-JKFIT + DEF2-UNIVERSAL-JKFIT
  @DF-RHF Final Energy:  -675.08256740384059
    Total Energy =                       -675.0825674038405850
 Dipole X            :        -83.5257214           87.4306113            3.9048898
 Dipole Y            :         -1.2914031            1.9374512            0.6460481
 Dipole Z            :         -0.0000000            0.0000000           -0.0000000
 Magnitude           :                                                    3.9579720
  //            Monomer A HF           //
    Molecular point group: c1
  Multiplicity = 1
  Basis Set: AUG-CC-PVTZ
    Blend: AUG-CC-PVTZ
  Basis Set: (AUG-CC-PVTZ AUX)
    Blend: AUG-CC-PVTZ-JKFIT + DEF2-UNIVERSAL-JKFIT
  @DF-RHF Final Energy:   -76.06032935172165
    Total Energy =                        -76.0603293517216343
  //            Monomer B HF           //
    Molecular point group: c1

    Geometry (in Angstrom), charge = 1, multiplicity = 1:

       Center              X                  Y                   Z               Mass
    ------------   -----------------  -----------------  -----------------  -----------------
      Gh(O)           0.000000000000     0.000000000000     0.000000000000    15.994914619570
      Gh(H)           0.359385000000     0.890994000000     0.000000000000     1.007825032230
      Gh(H)          -0.951316000000     0.134261000000     0.000000000000     1.007825032230
         K            2.466222000000     0.000000000000     0.000000000000    38.963706486400

  Charge       = 1
  Multiplicity = 1
  Basis Set: AUG-CC-PVTZ
    Blend: AUG-CC-PVTZ
  Basis Set: (AUG-CC-PVTZ AUX)
    Blend: AUG-CC-PVTZ-JKFIT + DEF2-UNIVERSAL-JKFIT

    Orbital Energies [Eh]
    ---------------------

    Doubly Occupied:

       1A   -133.753582     2A    -14.709062     3A    -11.739135
       4A    -11.739128     5A    -11.739128     6A     -1.964279
       7A     -1.170954     8A     -1.170881     9A     -1.170868

  @DF-RHF Final Energy:  -599.01750939419060

   => Energetics <=

    Nuclear Repulsion Energy =              0.0000000000000000
    One-Electron Energy =                -819.7209858450972888
    Two-Electron Energy =                 220.7034764509067770
    Total Energy =                       -599.0175093941904834
 Dipole X            :        -83.8891653           88.5491987            4.6600334
 Dipole Y            :          0.0000886            0.0000000            0.0000886
 Dipole Z            :          0.0000000            0.0000000            0.0000000
 Magnitude           :                                                    4.6600334

    SAPT Results
  --------------------------------------------------------------------------------------------------------
    Electrostatics                -14.33986625 [mEh]      -8.99840193 [kcal/mol]     -37.64931366 [kJ/mol]
      Elst10,r                    -15.26951182 [mEh]      -9.58176333 [kcal/mol]     -40.09009775 [kJ/mol]
      Elst12,r                      0.92964556 [mEh]       0.58336140 [kcal/mol]       2.44078409 [kJ/mol]

    Exchange                       20.67171620 [mEh]      12.97169776 [kcal/mol]      54.27358341 [kJ/mol]
      Exch10                       19.14924745 [mEh]      12.01633419 [kcal/mol]      50.27634225 [kJ/mol]
      Exch10(S^2)                  18.99853390 [mEh]      11.92176001 [kcal/mol]      49.88064388 [kJ/mol]
      Exch11(S^2)                   0.05211872 [mEh]       0.03270499 [kcal/mol]       0.13683767 [kJ/mol]
      Exch12(S^2)                   1.47035004 [mEh]       0.92265858 [kcal/mol]       3.86040349 [kJ/mol]

    Induction                      -9.65239262 [mEh]      -6.05696781 [kcal/mol]     -25.34235333 [kJ/mol]
      Ind20,r                     -19.57828250 [mEh]     -12.28555775 [kcal/mol]     -51.40277363 [kJ/mol]
      Ind22                        -2.66065499 [mEh]      -1.66958621 [kcal/mol]      -6.98554871 [kJ/mol]
      Exch-Ind20,r                 11.89607320 [mEh]       7.46489863 [kcal/mol]      31.23313588 [kJ/mol]
      Exch-Ind22                    1.61665593 [mEh]       1.01446691 [kcal/mol]       4.24452956 [kJ/mol]
      delta HF,r (2)               -0.92618426 [mEh]      -0.58118940 [kcal/mol]      -2.43169644 [kJ/mol]

    Dispersion                     -3.88786330 [mEh]      -2.43967105 [kcal/mol]     -10.20758368 [kJ/mol]
      Disp20                       -4.56965748 [mEh]      -2.86750336 [kcal/mol]     -11.99763407 [kJ/mol]
      Disp21                        0.53508124 [mEh]       0.33576854 [kcal/mol]       1.40485559 [kJ/mol]
      Disp22 (SDQ)                 -0.00435273 [mEh]      -0.00273138 [kcal/mol]      -0.01142810 [kJ/mol]
      Disp22 (T)                   -0.41896118 [mEh]      -0.26290211 [kcal/mol]      -1.09998242 [kJ/mol]
      Est. Disp22 (T)              -0.46464061 [mEh]      -0.29156639 [kcal/mol]      -1.21991376 [kJ/mol]
      Exch-Disp20                   0.61570630 [mEh]       0.38636153 [kcal/mol]       1.61653666 [kJ/mol]

  Total HF                         -4.72865793 [mEh]      -2.96727765 [kcal/mol]     -12.41508968 [kJ/mol]
  Total SAPT0                      -8.68260912 [mEh]      -5.44841948 [kcal/mol]     -22.79618709 [kJ/mol]
  Total SAPT2                      -7.27449386 [mEh]      -4.56481381 [kcal/mol]     -19.09918100 [kJ/mol]
  Total SAPT2+                     -7.20840597 [mEh]      -4.52334304 [kcal/mol]     -18.92566727 [kJ/mol]

  Special recipe for scaled SAPT0 (see Manual):
    Electrostatics sSAPT0         -15.26951182 [mEh]      -9.58176333 [kcal/mol]     -40.09009775 [kJ/mol]
    Exchange sSAPT0                19.14924745 [mEh]      12.01633419 [kcal/mol]      50.27634225 [kJ/mol]
    Induction sSAPT0               -8.32303050 [mEh]      -5.22278049 [kcal/mol]     -21.85211356 [kJ/mol]
    Dispersion sSAPT0              -3.93918162 [mEh]      -2.47187379 [kcal/mol]     -10.34231992 [kJ/mol]
  Total sSAPT0                     -8.38247649 [mEh]      -5.26008341 [kcal/mol]     -22.00818898 [kJ/mol]
  --------------------------------------------------------------------------------------------------------

*** Psi4 exiting successfully. Buy a developer a beer!
