                               Psi4 1.9 release

  ==> Input File <==

--------------------------------------------------------------------------
MEMORY 60 GB

molecule dimer {
0 1
O      0.000000     0.000000     0.000000
H     -0.134261     0.951316     0.000000
H     -0.890994    -0.359385     0.000000
--
1 1
K      2.466222     0.000000     0.000000

units ang
no_reorient
no_com
symmetry c1
}

set {
basis        aug-cc-pVTZ
scf_type     df
}

energy("sapt2+")
--------------------------------------------------------------------------

  //              Dimer HF             //
    Molecular point group: c1
  Charge       = 1
  Multiplicity = 1
  Basis Set: AUG-CC-PVTZ
    Blend: AUG-CC-PVTZ
  Basis Set: (AUG-CC-PVTZ AUX)
    Blend: AUG-CC-PVTZ-JKFIT + DEF2-UNIVERSAL-JKFIT
  @DF-RHF Final Energy:  -675.09831040334927
    Total Energy =                       -675.0983104033492737
 Dipole X            :        -83.0091371           86.6117476            3.6026105
 Dipole Y            :         -0.7403112            1.1185875            0.3782762
 Dipole Z            :         -0.0000000            0.0000000           -0.0000000
 Magnitude           :                                                    3.6224157
  //            Monomer A HF           //
    Molecular point group: c1
  Multiplicity = 1
  Basis Set: AUG-CC-PVTZ
    Blend: AUG-CC-PVTZ
  Basis Set: (AUG-CC-PVTZ AUX)
    Blend: AUG-CC-PVTZ-JKFIT + DEF2-UNIVERSAL-JKFIT
  @DF-RHF Final Energy:   -76.06033464867895
    Total Energy =                        -76.0603346486789320
  //            Monomer B HF           //
    Molecular point group: c1

    Geometry (in Angstrom), charge = 1, multiplicity = 1:

       Center              X                  Y                   Z               Mass
    ------------   -----------------  -----------------  -----------------  -----------------
      Gh(O)           0.000000000000     0.000000000000     0.000000000000    15.994914619570
      Gh(H)          -0.134261000000     0.951316000000     0.000000000000     1.007825032230
      Gh(H)          -0.890994000000    -0.359385000000     0.000000000000     1.007825032230
         K            2.466222000000     0.000000000000     0.000000000000    38.963706486400

  Charge       = 1
  Multiplicity = 1
  Basis Set: AUG-CC-PVTZ
    Blend: AUG-CC-PVTZ
  Basis Set: (AUG-CC-PVTZ AUX)
    Blend: AUG-CC-PVTZ-JKFIT + DEF2-UNIVERSAL-JKFIT

    Orbital Energies [Eh]
    ---------------------

    Doubly Occupied:

       1A   -133.753707     2A    -14.709158     3A    -11.739232
       4A    -11.739226     5A    -11.739226     6A     -1.964318
       7A     -1.170983     8A     -1.170912     9A     -1.170906

  @DF-RHF Final Energy:  -599.01750891827464

   => Energetics <=

    Nuclear Repulsion Energy =              0.0000000000000000
    One-Electron Energy =                -819.7196814239378000
    Two-Electron Energy =                 220.7021725056630999
    Total Energy =                       -599.0175089182746433
 Dipole X            :        -83.8890885           88.5491987            4.6601103
 Dipole Y            :          0.0000572            0.0000000            0.0000572
 Dipole Z            :         -0.0000000            0.0000000           -0.0000000
 Magnitude           :                                                    4.6601103

    SAPT Results
  --------------------------------------------------------------------------------------------------------
    Electrostatics                -30.78377339 [mEh]     -19.31710944 [kcal/mol]     -80.82278591 [kJ/mol]
      Elst10,r                    -31.93067512 [mEh]     -20.03680114 [kcal/mol]     -83.83397599 [kJ/mol]
      Elst12,r                      1.14690173 [mEh]       0.71969170 [kcal/mol]       3.01119008 [kJ/mol]

    Exchange                       21.39551426 [mEh]      13.42588790 [kcal/mol]      56.17391495 [kJ/mol]
      Exch10                       19.69363635 [mEh]      12.35794339 [kcal/mol]      51.70563512 [kJ/mol]
      Exch10(S^2)                  19.51747249 [mEh]      12.24739889 [kcal/mol]      51.24311695 [kJ/mol]
      Exch11(S^2)                   0.07470552 [mEh]       0.04687842 [kcal/mol]       0.19613932 [kJ/mol]
      Exch12(S^2)                   1.62717239 [mEh]       1.02106609 [kcal/mol]       4.27214051 [kJ/mol]

    Induction                      -9.31021142 [mEh]      -5.84224587 [kcal/mol]     -24.44395671 [kJ/mol]
      Ind20,r                     -22.54104651 [mEh]     -14.14472024 [kcal/mol]     -59.18150947 [kJ/mol]
      Ind22                        -3.22975964 [mEh]      -2.02670478 [kcal/mol]      -8.47973278 [kJ/mol]
      Exch-Ind20,r                 15.00065335 [mEh]       9.41305209 [kcal/mol]      39.38420994 [kJ/mol]
      Exch-Ind22                    2.14934585 [mEh]       1.34873488 [kcal/mol]       5.64310676 [kJ/mol]
      delta HF,r (2)               -0.68940446 [mEh]      -0.43260783 [kcal/mol]      -1.81003116 [kJ/mol]

    Dispersion                     -3.49879705 [mEh]      -2.19552829 [kcal/mol]      -9.18609038 [kJ/mol]
      Disp20                       -4.20641737 [mEh]      -2.63956675 [kcal/mol]     -11.04394728 [kJ/mol]
      Disp21                        0.51746409 [mEh]       0.32471362 [kcal/mol]       1.35860177 [kJ/mol]
      Disp22 (SDQ)                 -0.02712049 [mEh]      -0.01701836 [kcal/mol]      -0.07120484 [kJ/mol]
      Disp22 (T)                   -0.37808071 [mEh]      -0.23724923 [kcal/mol]      -0.99265077 [kJ/mol]
      Est. Disp22 (T)              -0.42480804 [mEh]      -0.26657107 [kcal/mol]      -1.11533336 [kJ/mol]
      Exch-Disp20                   0.64208476 [mEh]       0.40291427 [kcal/mol]       1.68579332 [kJ/mol]

  Total HF                        -20.46683640 [mEh]     -12.84313374 [kcal/mol]     -53.73567155 [kJ/mol]
  Total SAPT0                     -24.03116900 [mEh]     -15.07978621 [kcal/mol]     -63.09382552 [kJ/mol]
  Total SAPT2                     -22.26280315 [mEh]     -13.97011989 [kcal/mol]     -58.45098163 [kJ/mol]
  Total SAPT2+                    -22.19726760 [mEh]     -13.92899571 [kcal/mol]     -58.27891805 [kJ/mol]

  Special recipe for scaled SAPT0 (see Manual):
    Electrostatics sSAPT0         -31.93067512 [mEh]     -20.03680114 [kcal/mol]     -83.83397599 [kJ/mol]
    Exchange sSAPT0                19.69363635 [mEh]      12.35794339 [kcal/mol]      51.70563512 [kJ/mol]
    Induction sSAPT0               -7.81993462 [mEh]      -4.90708306 [kcal/mol]     -20.53123552 [kJ/mol]
    Dispersion sSAPT0              -3.54678892 [mEh]      -2.22564365 [kcal/mol]      -9.31209301 [kJ/mol]
  Total sSAPT0                    -23.60376231 [mEh]     -14.81158447 [kcal/mol]     -61.97166940 [kJ/mol]
  --------------------------------------------------------------------------------------------------------

*** Psi4 exiting successfully. Buy a developer a beer!
