                               Psi4 1.9 release

  ==> Input File <==

--------------------------------------------------------------------------
MEMORY 60 GB

molecule dimer {
0 1
O      0.000000     0.000000     0.000000
H     -0.953649     0.116533     0.000000
H      0.116533    -0.953649     0.000000
--
1 1
K      2.466222     0.000000     0.000000

units ang
no_reorient
no_com
symmetry c1
}

set {
basis        aug-cc-pVTZ
scf_type     df
}

energy("sapt2+")
--------------------------------------------------------------------------

  //              Dimer HF             //
    Molecular point group: c1
  Charge       = 1
  Multiplicity = 1
  Basis Set: AUG-CC-PVTZ
    Blend: AUG-CC-PVTZ
  Basis Set: (AUG-CC-PVTZ AUX)
    Blend: AUG-CC-PVTZ-JKFIT + DEF2-UNIVERSAL-JKFIT
  @DF-RHF Final Energy:  -675.09222635052697
    Total Energy =                       -675.0922263505269711
 Dipole X            :        -83.2323461           86.9672788            3.7349327
 Dipole Y            :          1.0505622           -1.5819200           -0.5313578
 Dipole Z            :          0.0000000            0.0000000            0.0000000
 Magnitude           :                                                    3.7725407
  //            Monomer A HF           //
    Molecular point group: c1
  Multiplicity = 1
  Basis Set: AUG-CC-PVTZ
    Blend: AUG-CC-PVTZ
  Basis Set: (AUG-CC-PVTZ AUX)
    Blend: AUG-CC-PVTZ-JKFIT + DEF2-UNIVERSAL-JKFIT
  @DF-RHF Final Energy:   -76.06033187004203
    Total Energy =                        -76.0603318700420346
  //            Monomer B HF           //
    Molecular point group: c1

    Geometry (in Angstrom), charge = 1, multiplicity = 1:

       Center              X                  Y                   Z               Mass
    ------------   -----------------  -----------------  -----------------  -----------------
      Gh(O)           0.000000000000     0.000000000000     0.000000000000    15.994914619570
      Gh(H)          -0.953649000000     0.116533000000     0.000000000000     1.007825032230
      Gh(H)           0.116533000000    -0.953649000000     0.000000000000     1.007825032230
         K            2.466222000000     0.000000000000     0.000000000000    38.963706486400

  Charge       = 1
  Multiplicity = 1
  Basis Set: AUG-CC-PVTZ
    Blend: AUG-CC-PVTZ
  Basis Set: (AUG-CC-PVTZ AUX)
    Blend: AUG-CC-PVTZ-JKFIT + DEF2-UNIVERSAL-JKFIT

    Orbital Energies [Eh]
    ---------------------

    Doubly Occupied:

       1A   -133.753660     2A    -14.709121     3A    -11.739196
       4A    -11.739189     5A    -11.739188     6A     -1.964303
       7A     -1.170970     8A     -1.170900     9A     -1.170891

  @DF-RHF Final Energy:  -599.01750913072169

   => Energetics <=

    Nuclear Repulsion Energy =              0.0000000000000000
    One-Electron Energy =                -819.7201824683301083
    Two-Electron Energy =                 220.7026733376083314
    Total Energy =                       -599.0175091307218054
 Dipole X            :        -83.8891027           88.5491987            4.6600961
 Dipole Y            :         -0.0000545            0.0000000           -0.0000545
 Dipole Z            :         -0.0000000            0.0000000           -0.0000000
 Magnitude           :                                                    4.6600961

    SAPT Results
  --------------------------------------------------------------------------------------------------------
    Electrostatics                -23.72126720 [mEh]     -14.88531990 [kcal/mol]     -62.28017845 [kJ/mol]
      Elst10,r                    -24.76020272 [mEh]     -15.53726178 [kcal/mol]     -65.00790329 [kJ/mol]
      Elst12,r                      1.03893552 [mEh]       0.65194188 [kcal/mol]       2.72772483 [kJ/mol]

    Exchange                       20.24827823 [mEh]      12.70598642 [kcal/mol]      53.16184718 [kJ/mol]
      Exch10                       18.63254359 [mEh]      11.69209763 [kcal/mol]      48.91973647 [kJ/mol]
      Exch10(S^2)                  18.48138567 [mEh]      11.59724459 [kcal/mol]      48.52287138 [kJ/mol]
      Exch11(S^2)                   0.05573535 [mEh]       0.03497446 [kcal/mol]       0.14633314 [kJ/mol]
      Exch12(S^2)                   1.55999929 [mEh]       0.97891433 [kcal/mol]       4.09577757 [kJ/mol]

    Induction                      -9.33296940 [mEh]      -5.85652672 [kcal/mol]     -24.50370778 [kJ/mol]
      Ind20,r                     -20.53666436 [mEh]     -12.88695144 [kcal/mol]     -53.91900484 [kJ/mol]
      Ind22                        -2.96517239 [mEh]      -1.86067377 [kcal/mol]      -7.78505905 [kJ/mol]
      Exch-Ind20,r                 13.08932704 [mEh]       8.21367672 [kcal/mol]      34.36602340 [kJ/mol]
      Exch-Ind22                    1.88989363 [mEh]       1.18592616 [kcal/mol]       4.96191505 [kJ/mol]
      delta HF,r (2)               -0.81035332 [mEh]      -0.50850438 [kcal/mol]      -2.12758234 [kJ/mol]

    Dispersion                     -3.60102987 [mEh]      -2.25968036 [kcal/mol]      -9.45450261 [kJ/mol]
      Disp20                       -4.28633134 [mEh]      -2.68971352 [kcal/mol]     -11.25376138 [kJ/mol]
      Disp21                        0.52747121 [mEh]       0.33099318 [kcal/mol]       1.38487546 [kJ/mol]
      Disp22 (SDQ)                 -0.02004714 [mEh]      -0.01257977 [kcal/mol]      -0.05263376 [kJ/mol]
      Disp22 (T)                   -0.38694999 [mEh]      -0.24281478 [kcal/mol]      -1.01593705 [kJ/mol]
      Est. Disp22 (T)              -0.43332949 [mEh]      -0.27191836 [kcal/mol]      -1.13770643 [kJ/mol]
      Exch-Disp20                   0.61120690 [mEh]       0.38353812 [kcal/mol]       1.60472350 [kJ/mol]

  Total HF                        -14.38534976 [mEh]      -9.02694326 [kcal/mol]     -37.76873060 [kJ/mol]
  Total SAPT0                     -18.06047420 [mEh]     -11.33311866 [kcal/mol]     -47.41776848 [kJ/mol]
  Total SAPT2                     -16.48108280 [mEh]     -10.34203560 [kcal/mol]     -43.27107693 [kJ/mol]
  Total SAPT2+                    -16.40698823 [mEh]     -10.29554055 [kcal/mol]     -43.07654167 [kJ/mol]

  Special recipe for scaled SAPT0 (see Manual):
    Electrostatics sSAPT0         -24.76020272 [mEh]     -15.53726178 [kcal/mol]     -65.00790329 [kJ/mol]
    Exchange sSAPT0                18.63254359 [mEh]      11.69209763 [kcal/mol]      48.91973647 [kJ/mol]
    Induction sSAPT0               -7.93388665 [mEh]      -4.97858903 [kcal/mol]     -20.83041652 [kJ/mol]
    Dispersion sSAPT0              -3.66000439 [mEh]      -2.29668743 [kcal/mol]      -9.60934020 [kJ/mol]
  Total sSAPT0                    -17.72155016 [mEh]     -11.12044062 [kcal/mol]     -46.52792354 [kJ/mol]
  --------------------------------------------------------------------------------------------------------

*** Psi4 exiting successfully. Buy a developer a beer!
