                               Psi4 1.9 release

  ==> Input File <==

--------------------------------------------------------------------------
MEMORY 60 GB

molecule dimer {
0 1
O      0.000000     0.000000     0.000000
H     -0.609884     0.738224     0.000000
H      0.936372     0.498213     0.000000
--
-1 1
F      2.426389     0.000000     0.000000

units ang
no_reorient
no_com
symmetry c1
}

set {
basis        aug-cc-pVTZ
scf_type     df
}

energy("sapt2+")
--------------------------------------------------------------------------

  //              Dimer HF             //
    Molecular point group: c1
  Charge       = -1
  Multiplicity = 1
  Basis Set: AUG-CC-PVTZ
    Blend: AUG-CC-PVTZ
  Basis Set: (AUG-CC-PVTZ AUX)
    Blend: AUG-CC-PVTZ-JKFIT
  @DF-RHF Final Energy:  -175.52544234972405
    Total Energy =                       -175.5254423497240452
 Dipole X            :        -45.5715110           41.8838691           -3.6876419
 Dipole Y            :         -1.6400679            2.3365273            0.6964594
 Dipole Z            :          0.0000000            0.0000000            0.0000000
 Magnitude           :                                                    3.7528334
  //            Monomer A HF           //
    Molecular point group: c1
  Multiplicity = 1
  Basis Set: AUG-CC-PVTZ
    Blend: AUG-CC-PVTZ
  Basis Set: (AUG-CC-PVTZ AUX)
    Blend: AUG-CC-PVTZ-JKFIT
  @DF-RHF Final Energy:   -76.04859588374845
    Total Energy =                        -76.0485958837484475
  //            Monomer B HF           //
    Molecular point group: c1

    Geometry (in Angstrom), charge = -1, multiplicity = 1:

       Center              X                  Y                   Z               Mass
    ------------   -----------------  -----------------  -----------------  -----------------
      Gh(O)           0.000000000000     0.000000000000     0.000000000000    15.994914619570
      Gh(H)          -0.609884000000     0.738224000000     0.000000000000     1.007825032230
      Gh(H)           0.936372000000     0.498213000000     0.000000000000     1.007825032230
         F            2.426389000000     0.000000000000     0.000000000000    18.998403162730

  Charge       = -1
  Multiplicity = 1
  Basis Set: AUG-CC-PVTZ
    Blend: AUG-CC-PVTZ
  Basis Set: (AUG-CC-PVTZ AUX)
    Blend: AUG-CC-PVTZ-JKFIT

    Orbital Energies [Eh]
    ---------------------

    Doubly Occupied:

       1A    -25.833795     2A     -1.076001     3A     -0.180997
       4A     -0.180937     5A     -0.180935

  @DF-RHF Final Energy:   -99.45089352505532

   => Energetics <=

    Nuclear Repulsion Energy =              0.0000000000000000
    One-Electron Energy =                -143.9964563073307318
    Two-Electron Energy =                  44.5455627822754181
    Total Energy =                        -99.4508935250553066
 Dipole X            :        -45.8522554           41.2668962           -4.5853593
 Dipole Y            :          0.0001130            0.0000000            0.0001130
 Dipole Z            :          0.0000000            0.0000000            0.0000000
 Magnitude           :                                                    4.5853593

    SAPT Results
  --------------------------------------------------------------------------------------------------------
    Electrostatics                -47.63214307 [mEh]     -29.88962103 [kcal/mol]    -125.05817440 [kJ/mol]
      Elst10,r                    -45.65515594 [mEh]     -28.64904288 [kcal/mol]    -119.86759541 [kJ/mol]
      Elst12,r                     -1.97698713 [mEh]      -1.24057815 [kcal/mol]      -5.19057899 [kJ/mol]

    Exchange                       56.48878409 [mEh]      35.44724718 [kcal/mol]     148.31128220 [kJ/mol]
      Exch10                       46.82604359 [mEh]      29.38378597 [kcal/mol]     122.94176050 [kJ/mol]
      Exch10(S^2)                  45.83220552 [mEh]      28.76014317 [kcal/mol]     120.33243903 [kJ/mol]
      Exch11(S^2)                   0.15866648 [mEh]       0.09956472 [kcal/mol]       0.41657879 [kJ/mol]
      Exch12(S^2)                   9.50407402 [mEh]       5.96389649 [kcal/mol]      24.95294291 [kJ/mol]

    Induction                     -30.64178874 [mEh]     -19.22801273 [kcal/mol]     -80.45000525 [kJ/mol]
      Ind20,r                     -33.67067744 [mEh]     -21.12866909 [kcal/mol]     -88.40235145 [kJ/mol]
      Ind22                        -6.73576424 [mEh]      -4.22675587 [kcal/mol]     -17.68474657 [kJ/mol]
      Exch-Ind20,r                 16.08512990 [mEh]      10.09357140 [kcal/mol]      42.23150272 [kJ/mol]
      Exch-Ind22                    3.21780406 [mEh]       2.01920253 [kcal/mol]       8.44834340 [kJ/mol]
      delta HF,r (2)               -9.53828102 [mEh]      -5.98536170 [kcal/mol]     -25.04275336 [kJ/mol]

    Dispersion                    -11.12825962 [mEh]      -6.98308834 [kcal/mol]     -29.21724160 [kJ/mol]
      Disp20                      -11.89631204 [mEh]      -7.46504851 [kcal/mol]     -31.23376297 [kJ/mol]
      Disp21                        0.53605782 [mEh]       0.33638136 [kcal/mol]       1.40741961 [kJ/mol]
      Disp22 (SDQ)                 -1.04530512 [mEh]      -0.65593887 [kcal/mol]      -2.74444823 [kJ/mol]
      Disp22 (T)                   -2.01640811 [mEh]      -1.26531519 [kcal/mol]      -5.29407877 [kJ/mol]
      Est. Disp22 (T)              -2.35200168 [mEh]      -1.47590334 [kcal/mol]      -6.17517956 [kJ/mol]
      Exch-Disp20                   3.62930141 [mEh]       2.27742102 [kcal/mol]       9.52872955 [kJ/mol]

  Total HF                        -25.95294092 [mEh]     -16.28571630 [kcal/mol]     -68.13943700 [kJ/mol]
  Total SAPT0                     -34.21995155 [mEh]     -21.47334379 [kcal/mol]     -89.84447042 [kJ/mol]
  Total SAPT2                     -30.05215835 [mEh]     -18.85801407 [kcal/mol]     -78.90193088 [kJ/mol]
  Total SAPT2+                    -32.91340733 [mEh]     -20.65347492 [kcal/mol]     -86.41413905 [kJ/mol]

  Special recipe for scaled SAPT0 (see Manual):
    Electrostatics sSAPT0         -45.65515594 [mEh]     -28.64904288 [kcal/mol]    -119.86759541 [kJ/mol]
    Exchange sSAPT0                46.82604359 [mEh]      29.38378597 [kcal/mol]     122.94176050 [kJ/mol]
    Induction sSAPT0              -26.05459146 [mEh]     -16.34950297 [kcal/mol]     -68.40632044 [kJ/mol]
    Dispersion sSAPT0              -8.02575776 [mEh]      -5.03623903 [kcal/mol]     -21.07162410 [kJ/mol]
  Total sSAPT0                    -32.90946157 [mEh]     -20.65099891 [kcal/mol]     -86.40377945 [kJ/mol]
  --------------------------------------------------------------------------------------------------------

*** Psi4 exiting successfully. Buy a developer a beer!
