                               Psi4 1.9 release

  ==> Input File <==

--------------------------------------------------------------------------
MEMORY 60 GB

molecule dimer {
0 1
O      0.000000     0.000000     0.000000
H      0.555220     0.780169     0.000000
H      0.723587    -0.775519     0.000000
--
-1 1
F      2.426389     0.000000     0.000000

units ang
no_reorient
no_com
symmetry c1
}

set {
basis        aug-cc-pVTZ
scf_type     df
}

energy("sapt2+")
--------------------------------------------------------------------------

  //              Dimer HF             //
    Molecular point group: c1
  Charge       = -1
  Multiplicity = 1
  Basis Set: AUG-CC-PVTZ
    Blend: AUG-CC-PVTZ
  Basis Set: (AUG-CC-PVTZ AUX)
    Blend: AUG-CC-PVTZ-JKFIT
  @DF-RHF Final Energy:  -175.52444475725824
    Total Energy =                       -175.5244447572582374
 Dipole X            :        -46.9416134           43.6834912           -3.2581222
 Dipole Y            :         -0.0029430            0.0087872            0.0058442
 Dipole Z            :          0.0000000            0.0000000            0.0000000
 Magnitude           :                                                    3.2581275
  //            Monomer A HF           //
    Molecular point group: c1
  Multiplicity = 1
  Basis Set: AUG-CC-PVTZ
    Blend: AUG-CC-PVTZ
  Basis Set: (AUG-CC-PVTZ AUX)
    Blend: AUG-CC-PVTZ-JKFIT
  @DF-RHF Final Energy:   -76.04859444959843
    Total Energy =                        -76.0485944495984256
  //            Monomer B HF           //
    Molecular point group: c1

    Geometry (in Angstrom), charge = -1, multiplicity = 1:

       Center              X                  Y                   Z               Mass
    ------------   -----------------  -----------------  -----------------  -----------------
      Gh(O)           0.000000000000     0.000000000000     0.000000000000    15.994914619570
      Gh(H)           0.555220000000     0.780169000000     0.000000000000     1.007825032230
      Gh(H)           0.723587000000    -0.775519000000     0.000000000000     1.007825032230
         F            2.426389000000     0.000000000000     0.000000000000    18.998403162730

  Charge       = -1
  Multiplicity = 1
  Basis Set: AUG-CC-PVTZ
    Blend: AUG-CC-PVTZ
  Basis Set: (AUG-CC-PVTZ AUX)
    Blend: AUG-CC-PVTZ-JKFIT

    Orbital Energies [Eh]
    ---------------------

    Doubly Occupied:

       1A    -25.833758     2A     -1.076027     3A     -0.181023
       4A     -0.180954     5A     -0.180952

  @DF-RHF Final Energy:   -99.45089174727481

   => Energetics <=

    Nuclear Repulsion Energy =              0.0000000000000000
    One-Electron Energy =                -143.9963577173550959
    Two-Electron Energy =                  44.5454659700802864
    Total Energy =                        -99.4508917472748095
 Dipole X            :        -45.8530651           41.2668962           -4.5861690
 Dipole Y            :          0.0001567            0.0000000            0.0001567
 Dipole Z            :          0.0000000            0.0000000            0.0000000
 Magnitude           :                                                    4.5861690

    SAPT Results
  --------------------------------------------------------------------------------------------------------
    Electrostatics                -52.97336231 [mEh]     -33.24128671 [kcal/mol]    -139.08154359 [kJ/mol]
      Elst10,r                    -50.56209891 [mEh]     -31.72819608 [kcal/mol]    -132.75077241 [kJ/mol]
      Elst12,r                     -2.41126340 [mEh]      -1.51309063 [kcal/mol]      -6.33077118 [kJ/mol]

    Exchange                       51.18669349 [mEh]      32.12013510 [kcal/mol]     134.39064525 [kJ/mol]
      Exch10                       40.46983887 [mEh]      25.39520729 [kcal/mol]     106.25354731 [kJ/mol]
      Exch10(S^2)                  39.91650578 [mEh]      25.04798554 [kcal/mol]     104.80077149 [kJ/mol]
      Exch11(S^2)                   0.21234749 [mEh]       0.13325006 [kcal/mol]       0.55751825 [kJ/mol]
      Exch12(S^2)                  10.50450714 [mEh]       6.59167775 [kcal/mol]      27.57957970 [kJ/mol]

    Induction                     -17.97402390 [mEh]     -11.27887028 [kcal/mol]     -47.19079326 [kJ/mol]
      Ind20,r                     -28.19384666 [mEh]     -17.69190588 [kcal/mol]     -74.02293420 [kJ/mol]
      Ind22                        -7.76199728 [mEh]      -4.87072683 [kcal/mol]     -20.37912105 [kJ/mol]
      Exch-Ind20,r                 16.90568479 [mEh]      10.60847737 [kcal/mol]      44.38586931 [kJ/mol]
      Exch-Ind22                    4.65427371 [mEh]       2.92060085 [kcal/mol]      12.21979395 [kJ/mol]
      delta HF,r (2)               -3.57813847 [mEh]      -2.24531579 [kcal/mol]      -9.39440127 [kJ/mol]

    Dispersion                    -11.02163482 [mEh]      -6.91618027 [kcal/mol]     -28.93729824 [kJ/mol]
      Disp20                      -11.36653982 [mEh]      -7.13261142 [kcal/mol]     -29.84284619 [kJ/mol]
      Disp21                        0.31471874 [mEh]       0.19748899 [kcal/mol]       0.82629394 [kJ/mol]
      Disp22 (SDQ)                 -1.27709252 [mEh]      -0.80138766 [kcal/mol]      -3.35300596 [kJ/mol]
      Disp22 (T)                   -2.00584927 [mEh]      -1.25868942 [kcal/mol]      -5.26635654 [kJ/mol]
      Est. Disp22 (T)              -2.38099095 [mEh]      -1.49409438 [kcal/mol]      -6.25129087 [kJ/mol]
      Exch-Disp20                   3.68826973 [mEh]       2.31442419 [kcal/mol]       9.68355083 [kJ/mol]

  Total HF                        -24.95856039 [mEh]     -15.66173309 [kcal/mol]     -65.52869126 [kJ/mol]
  Total SAPT0                     -32.63683048 [mEh]     -20.47992032 [kcal/mol]     -85.68798662 [kJ/mol]
  Total SAPT2                     -27.43896282 [mEh]     -17.21820912 [kcal/mol]     -72.04098696 [kJ/mol]
  Total SAPT2+                    -30.78232755 [mEh]     -19.31620216 [kcal/mol]     -80.81898984 [kJ/mol]

  Special recipe for scaled SAPT0 (see Manual):
    Electrostatics sSAPT0         -50.56209891 [mEh]     -31.72819608 [kcal/mol]    -132.75077241 [kJ/mol]
    Exchange sSAPT0                40.46983887 [mEh]      25.39520729 [kcal/mol]     106.25354731 [kJ/mol]
    Induction sSAPT0              -14.15345627 [mEh]      -8.88142790 [kcal/mol]     -37.15989431 [kJ/mol]
    Dispersion sSAPT0              -7.52275074 [mEh]      -4.72059736 [kcal/mol]     -19.75097935 [kJ/mol]
  Total sSAPT0                    -31.76846706 [mEh]     -19.93501405 [kcal/mol]     -83.40809877 [kJ/mol]
  --------------------------------------------------------------------------------------------------------

*** Psi4 exiting successfully. Buy a developer a beer!
