                               Psi4 1.9 release

  ==> Input File <==

--------------------------------------------------------------------------
MEMORY 60 GB

molecule dimer {
0 1
O      0.000000     0.000000     0.000000
H     -0.897287     0.334379     0.000000
H      0.561815     0.899651     0.000000
--
-1 1
F      2.426389     0.000000     0.000000

units ang
no_reorient
no_com
symmetry c1
}

set {
basis        aug-cc-pVTZ
scf_type     df
}

energy("sapt2+")
--------------------------------------------------------------------------

  //              Dimer HF             //
    Molecular point group: c1
  Charge       = -1
  Multiplicity = 1
  Basis Set: AUG-CC-PVTZ
    Blend: AUG-CC-PVTZ
  Basis Set: (AUG-CC-PVTZ AUX)
    Blend: AUG-CC-PVTZ-JKFIT
  @DF-RHF Final Energy:  -175.49368031502522
    Total Energy =                       -175.4936803150252160
 Dipole X            :        -45.0859102           40.6329460           -4.4529643
 Dipole Y            :         -1.6318429            2.3319787            0.7001359
 Dipole Z            :          0.0000000            0.0000000            0.0000000
 Magnitude           :                                                    4.5076691
  //            Monomer A HF           //
    Molecular point group: c1
  Multiplicity = 1
  Basis Set: AUG-CC-PVTZ
    Blend: AUG-CC-PVTZ
  Basis Set: (AUG-CC-PVTZ AUX)
    Blend: AUG-CC-PVTZ-JKFIT
  @DF-RHF Final Energy:   -76.04860167200152
    Total Energy =                        -76.0486016720015243
  //            Monomer B HF           //
    Molecular point group: c1

    Geometry (in Angstrom), charge = -1, multiplicity = 1:

       Center              X                  Y                   Z               Mass
    ------------   -----------------  -----------------  -----------------  -----------------
      Gh(O)           0.000000000000     0.000000000000     0.000000000000    15.994914619570
      Gh(H)          -0.897287000000     0.334379000000     0.000000000000     1.007825032230
      Gh(H)           0.561815000000     0.899651000000     0.000000000000     1.007825032230
         F            2.426389000000     0.000000000000     0.000000000000    18.998403162730

  Charge       = -1
  Multiplicity = 1
  Basis Set: AUG-CC-PVTZ
    Blend: AUG-CC-PVTZ
  Basis Set: (AUG-CC-PVTZ AUX)
    Blend: AUG-CC-PVTZ-JKFIT

    Orbital Energies [Eh]
    ---------------------

    Doubly Occupied:

       1A    -25.833729     2A     -1.076007     3A     -0.180993
       4A     -0.180938     5A     -0.180937

  @DF-RHF Final Energy:   -99.45087214510940

   => Energetics <=

    Nuclear Repulsion Energy =              0.0000000000000000
    One-Electron Energy =                -143.9965376631947436
    Two-Electron Energy =                  44.5456655180853502
    Total Energy =                        -99.4508721451094004
 Dipole X            :        -45.8524658           41.2668962           -4.5855697
 Dipole Y            :         -0.0000599            0.0000000           -0.0000599
 Dipole Z            :          0.0000000            0.0000000            0.0000000
 Magnitude           :                                                    4.5855697

    SAPT Results
  --------------------------------------------------------------------------------------------------------
    Electrostatics                -10.69387827 [mEh]      -6.71050993 [kcal/mol]     -28.07677353 [kJ/mol]
      Elst10,r                     -6.14316229 [mEh]      -3.85489253 [kcal/mol]     -16.12887036 [kJ/mol]
      Elst12,r                     -4.55071599 [mEh]      -2.85561739 [kcal/mol]     -11.94790317 [kJ/mol]

    Exchange                       29.04418073 [mEh]      18.22549857 [kcal/mol]      76.25548601 [kJ/mol]
      Exch10                       22.51636570 [mEh]      14.12923279 [kcal/mol]      59.11671001 [kJ/mol]
      Exch10(S^2)                  22.33723021 [mEh]      14.01682357 [kcal/mol]      58.64638982 [kJ/mol]
      Exch11(S^2)                  -0.33480178 [mEh]      -0.21009129 [kcal/mol]      -0.87902195 [kJ/mol]
      Exch12(S^2)                   6.86261681 [mEh]       4.30635706 [kcal/mol]      18.01779794 [kJ/mol]

    Induction                     -12.92684634 [mEh]      -8.11171854 [kcal/mol]     -33.93943039 [kJ/mol]
      Ind20,r                     -18.97715120 [mEh]     -11.90834217 [kcal/mol]     -49.82450362 [kJ/mol]
      Ind22                        -5.34599157 [mEh]      -3.35466035 [kcal/mol]     -14.03589892 [kJ/mol]
      Exch-Ind20,r                 10.64527767 [mEh]       6.68001259 [kcal/mol]      27.94917266 [kJ/mol]
      Exch-Ind22                    2.99884656 [mEh]       1.88180463 [kcal/mol]       7.87347056 [kJ/mol]
      delta HF,r (2)               -2.24782780 [mEh]      -1.41053324 [kcal/mol]      -5.90167106 [kJ/mol]

    Dispersion                     -7.23485869 [mEh]      -4.53994237 [kcal/mol]     -18.99511888 [kJ/mol]
      Disp20                       -7.39538023 [mEh]      -4.64067116 [kcal/mol]     -19.41656813 [kJ/mol]
      Disp21                        0.30772890 [mEh]       0.19310280 [kcal/mol]       0.80794212 [kJ/mol]
      Disp22 (SDQ)                 -0.82243496 [mEh]      -0.51608573 [kcal/mol]      -2.15930269 [kJ/mol]
      Disp22 (T)                   -1.27546524 [mEh]      -0.80036652 [kcal/mol]      -3.34873351 [kJ/mol]
      Est. Disp22 (T)              -1.51647142 [mEh]      -0.95160018 [kcal/mol]      -3.98149517 [kJ/mol]
      Exch-Disp20                   2.19169902 [mEh]       1.37531190 [kcal/mol]       5.75430498 [kJ/mol]

  Total HF                          5.79350209 [mEh]       3.63547745 [kcal/mol]      15.21083763 [kJ/mol]
  Total SAPT0                       0.58982087 [mEh]       0.37011818 [kcal/mol]       1.54857448 [kJ/mol]
  Total SAPT2                       0.21977491 [mEh]       0.13791084 [kcal/mol]       0.57701894 [kJ/mol]
  Total SAPT2+                     -1.81140257 [mEh]      -1.13667227 [kcal/mol]      -4.75583679 [kJ/mol]

  Special recipe for scaled SAPT0 (see Manual):
    Electrostatics sSAPT0          -6.14316229 [mEh]      -3.85489253 [kcal/mol]     -16.12887036 [kJ/mol]
    Exchange sSAPT0                22.51636570 [mEh]      14.12923279 [kcal/mol]      59.11671001 [kJ/mol]
    Induction sSAPT0              -10.32152954 [mEh]      -6.47685757 [kcal/mol]     -27.09917206 [kJ/mol]
    Dispersion sSAPT0              -5.15052761 [mEh]      -3.23200487 [kcal/mol]     -13.52270838 [kJ/mol]
  Total sSAPT0                      0.90114627 [mEh]       0.56547782 [kcal/mol]       2.36595921 [kJ/mol]
  --------------------------------------------------------------------------------------------------------

*** Psi4 exiting successfully. Buy a developer a beer!
