                               Psi4 1.9 release

  ==> Input File <==

--------------------------------------------------------------------------
MEMORY 60 GB

molecule dimer {
0 1
O      0.000000     0.000000     0.000000
H      0.334379     0.897287     0.000000
H      0.899651    -0.561815     0.000000
--
-1 1
F      2.426389     0.000000     0.000000

units ang
no_reorient
no_com
symmetry c1
}

set {
basis        aug-cc-pVTZ
scf_type     df
}

energy("sapt2+")
--------------------------------------------------------------------------

  //              Dimer HF             //
    Molecular point group: c1
  Charge       = -1
  Multiplicity = 1
  Basis Set: AUG-CC-PVTZ
    Blend: AUG-CC-PVTZ
  Basis Set: (AUG-CC-PVTZ AUX)
    Blend: AUG-CC-PVTZ-JKFIT
  @DF-RHF Final Energy:  -175.53169311371840
    Total Energy =                       -175.5316931137184042
 Dipole X            :        -46.7501841           43.5988749           -3.1513092
 Dipole Y            :         -0.4386360            0.6339502            0.1953142
 Dipole Z            :         -0.0000000            0.0000000           -0.0000000
 Magnitude           :                                                    3.1573561
  //            Monomer A HF           //
    Molecular point group: c1
  Multiplicity = 1
  Basis Set: AUG-CC-PVTZ
    Blend: AUG-CC-PVTZ
  Basis Set: (AUG-CC-PVTZ AUX)
    Blend: AUG-CC-PVTZ-JKFIT
  @DF-RHF Final Energy:   -76.04859669238773
    Total Energy =                        -76.0485966923877328
  //            Monomer B HF           //
    Molecular point group: c1

    Geometry (in Angstrom), charge = -1, multiplicity = 1:

       Center              X                  Y                   Z               Mass
    ------------   -----------------  -----------------  -----------------  -----------------
      Gh(O)           0.000000000000     0.000000000000     0.000000000000    15.994914619570
      Gh(H)           0.334379000000     0.897287000000     0.000000000000     1.007825032230
      Gh(H)           0.899651000000    -0.561815000000     0.000000000000     1.007825032230
         F            2.426389000000     0.000000000000     0.000000000000    18.998403162730

  Charge       = -1
  Multiplicity = 1
  Basis Set: AUG-CC-PVTZ
    Blend: AUG-CC-PVTZ
  Basis Set: (AUG-CC-PVTZ AUX)
    Blend: AUG-CC-PVTZ-JKFIT

    Orbital Energies [Eh]
    ---------------------

    Doubly Occupied:

       1A    -25.833808     2A     -1.076026     3A     -0.181025
       4A     -0.180955     5A     -0.180949

  @DF-RHF Final Energy:   -99.45089711589510

   => Energetics <=

    Nuclear Repulsion Energy =              0.0000000000000000
    One-Electron Energy =                -143.9962664013665972
    Two-Electron Energy =                  44.5453692854714944
    Total Energy =                        -99.4508971158951027
 Dipole X            :        -45.8528299           41.2668962           -4.5859337
 Dipole Y            :          0.0006432            0.0000000            0.0006432
 Dipole Z            :         -0.0000000            0.0000000           -0.0000000
 Magnitude           :                                                    4.5859338

    SAPT Results
  --------------------------------------------------------------------------------------------------------
    Electrostatics                -61.21586464 [mEh]     -38.41353501 [kcal/mol]    -160.72223047 [kJ/mol]
      Elst10,r                    -59.37751640 [mEh]     -37.25995407 [kcal/mol]    -155.89564782 [kJ/mol]
      Elst12,r                     -1.83834824 [mEh]      -1.15358094 [kcal/mol]      -4.82658264 [kJ/mol]

    Exchange                       61.99682449 [mEh]      38.90359471 [kcal/mol]     162.77264028 [kJ/mol]
      Exch10                       50.27984840 [mEh]      31.55108121 [kcal/mol]     132.00972380 [kJ/mol]
      Exch10(S^2)                  49.25268561 [mEh]      30.90652683 [kcal/mol]     129.31290825 [kJ/mol]
      Exch11(S^2)                   0.39554269 [mEh]       0.24820678 [kcal/mol]       1.03849718 [kJ/mol]
      Exch12(S^2)                  11.32143340 [mEh]       7.10430672 [kcal/mol]      29.72441931 [kJ/mol]

    Induction                     -26.81538982 [mEh]     -16.82691116 [kcal/mol]     -70.40379628 [kJ/mol]
      Ind20,r                     -34.52558025 [mEh]     -21.66512869 [kcal/mol]     -90.64689845 [kJ/mol]
      Ind22                        -8.23396582 [mEh]      -5.16689156 [kcal/mol]     -21.61827429 [kJ/mol]
      Exch-Ind20,r                 18.95356324 [mEh]      11.89354050 [kcal/mol]      49.76257344 [kJ/mol]
      Exch-Ind22                    4.52021344 [mEh]       2.83647676 [kcal/mol]      11.86781876 [kJ/mol]
      delta HF,r (2)               -7.52962044 [mEh]      -4.72490816 [kcal/mol]     -19.76901574 [kJ/mol]

    Dispersion                    -12.28282095 [mEh]      -7.70758651 [kcal/mol]     -32.24854197 [kJ/mol]
      Disp20                      -12.97271967 [mEh]      -8.14050450 [kcal/mol]     -34.05987081 [kJ/mol]
      Disp21                        0.50434812 [mEh]       0.31648323 [kcal/mol]       1.32416582 [kJ/mol]
      Disp22 (SDQ)                 -1.36051259 [mEh]      -0.85373454 [kcal/mol]      -3.57202530 [kJ/mol]
      Disp22 (T)                   -2.27539052 [mEh]      -1.42782911 [kcal/mol]      -5.97403700 [kJ/mol]
      Est. Disp22 (T)              -2.66520763 [mEh]      -1.67244304 [kcal/mol]      -6.99750167 [kJ/mol]
      Exch-Disp20                   4.21127081 [mEh]       2.64261233 [kcal/mol]      11.05669000 [kJ/mol]

  Total HF                        -32.19930544 [mEh]     -20.20536921 [kcal/mol]     -84.53926477 [kJ/mol]
  Total SAPT0                     -40.96075430 [mEh]     -25.70326137 [kcal/mol]    -107.54244559 [kJ/mol]
  Total SAPT2                     -34.79587883 [mEh]     -21.83474361 [kcal/mol]     -91.35656727 [kJ/mol]
  Total SAPT2+                    -38.31725092 [mEh]     -24.04443796 [kcal/mol]    -100.60192843 [kJ/mol]

  Special recipe for scaled SAPT0 (see Manual):
    Electrostatics sSAPT0         -59.37751640 [mEh]     -37.25995407 [kcal/mol]    -155.89564782 [kJ/mol]
    Exchange sSAPT0                50.27984840 [mEh]      31.55108121 [kcal/mol]     132.00972380 [kJ/mol]
    Induction sSAPT0              -21.89090772 [mEh]     -13.73675199 [kcal/mol]     -57.47457031 [kJ/mol]
    Dispersion sSAPT0              -8.49243819 [mEh]      -5.32908542 [kcal/mol]     -22.29689340 [kJ/mol]
  Total sSAPT0                    -39.48101391 [mEh]     -24.77471026 [kcal/mol]    -103.65738774 [kJ/mol]
  --------------------------------------------------------------------------------------------------------

*** Psi4 exiting successfully. Buy a developer a beer!
