                               Psi4 1.9 release

  ==> Input File <==

--------------------------------------------------------------------------
MEMORY 60 GB

molecule dimer {
0 1
O      0.000000     0.000000     0.000000
H     -0.780169     0.555220     0.000000
H      0.775519     0.723587     0.000000
--
-1 1
F      2.426389     0.000000     0.000000

units ang
no_reorient
no_com
symmetry c1
}

set {
basis        aug-cc-pVTZ
scf_type     df
}

energy("sapt2+")
--------------------------------------------------------------------------

  //              Dimer HF             //
    Molecular point group: c1
  Charge       = -1
  Multiplicity = 1
  Basis Set: AUG-CC-PVTZ
    Blend: AUG-CC-PVTZ
  Basis Set: (AUG-CC-PVTZ AUX)
    Blend: AUG-CC-PVTZ-JKFIT
  @DF-RHF Final Energy:  -175.50791499783742
    Total Energy =                       -175.5079149978374176
 Dipole X            :        -45.3599257           41.2581089           -4.1018168
 Dipole Y            :         -1.6905984            2.4165950            0.7259966
 Dipole Z            :         -0.0000000            0.0000000           -0.0000000
 Magnitude           :                                                    4.1655698
  //            Monomer A HF           //
    Molecular point group: c1
  Multiplicity = 1
  Basis Set: AUG-CC-PVTZ
    Blend: AUG-CC-PVTZ
  Basis Set: (AUG-CC-PVTZ AUX)
    Blend: AUG-CC-PVTZ-JKFIT
  @DF-RHF Final Energy:   -76.04859816304847
    Total Energy =                        -76.0485981630484673
  //            Monomer B HF           //
    Molecular point group: c1

    Geometry (in Angstrom), charge = -1, multiplicity = 1:

       Center              X                  Y                   Z               Mass
    ------------   -----------------  -----------------  -----------------  -----------------
      Gh(O)           0.000000000000     0.000000000000     0.000000000000    15.994914619570
      Gh(H)          -0.780169000000     0.555220000000     0.000000000000     1.007825032230
      Gh(H)           0.775519000000     0.723587000000     0.000000000000     1.007825032230
         F            2.426389000000     0.000000000000     0.000000000000    18.998403162730

  Charge       = -1
  Multiplicity = 1
  Basis Set: AUG-CC-PVTZ
    Blend: AUG-CC-PVTZ
  Basis Set: (AUG-CC-PVTZ AUX)
    Blend: AUG-CC-PVTZ-JKFIT

    Orbital Energies [Eh]
    ---------------------

    Doubly Occupied:

       1A    -25.833754     2A     -1.076002     3A     -0.180990
       4A     -0.180939     5A     -0.180934

  @DF-RHF Final Energy:   -99.45087853703960

   => Energetics <=

    Nuclear Repulsion Energy =              0.0000000000000000
    One-Electron Energy =                -143.9965200359609980
    Two-Electron Energy =                  44.5456414989213982
    Total Energy =                        -99.4508785370395998
 Dipole X            :        -45.8525616           41.2668962           -4.5856655
 Dipole Y            :          0.0000852            0.0000000            0.0000852
 Dipole Z            :         -0.0000000            0.0000000           -0.0000000
 Magnitude           :                                                    4.5856655

    SAPT Results
  --------------------------------------------------------------------------------------------------------
    Electrostatics                -27.28443689 [mEh]     -17.12124263 [kcal/mol]     -71.63527918 [kJ/mol]
      Elst10,r                    -23.73526295 [mEh]     -14.89410237 [kcal/mol]     -62.31692430 [kJ/mol]
      Elst12,r                     -3.54917393 [mEh]      -2.22714027 [kcal/mol]      -9.31835488 [kJ/mol]

    Exchange                       39.07033741 [mEh]      24.51700687 [kcal/mol]     102.57915674 [kJ/mol]
      Exch10                       31.33598709 [mEh]      19.66362877 [kcal/mol]      82.27262277 [kJ/mol]
      Exch10(S^2)                  30.93920673 [mEh]      19.41464533 [kcal/mol]      81.23087607 [kJ/mol]
      Exch11(S^2)                  -0.15238679 [mEh]      -0.09562415 [kcal/mol]      -0.40009145 [kJ/mol]
      Exch12(S^2)                   7.88673711 [mEh]       4.94900225 [kcal/mol]      20.70662543 [kJ/mol]

    Induction                     -18.82506221 [mEh]     -11.81290488 [kcal/mol]     -49.42519403 [kJ/mol]
      Ind20,r                     -24.20371750 [mEh]     -15.18806203 [kcal/mol]     -63.54685154 [kJ/mol]
      Ind22                        -5.83742311 [mEh]      -3.66303831 [kcal/mol]     -15.32615228 [kJ/mol]
      Exch-Ind20,r                 12.65195370 [mEh]       7.93922081 [kcal/mol]      33.21769986 [kJ/mol]
      Exch-Ind22                    3.05138279 [mEh]       1.91477161 [kcal/mol]       8.01140440 [kJ/mol]
      delta HF,r (2)               -4.48725808 [mEh]      -2.81579696 [kcal/mol]     -11.78129448 [kJ/mol]

    Dispersion                     -8.79684955 [mEh]      -5.52010643 [kcal/mol]     -23.09612531 [kJ/mol]
      Disp20                       -9.14716006 [mEh]      -5.73992959 [kcal/mol]     -24.01586542 [kJ/mol]
      Disp21                        0.34610561 [mEh]       0.21718455 [kcal/mol]       0.90870014 [kJ/mol]
      Disp22 (SDQ)                 -0.88676397 [mEh]      -0.55645279 [kcal/mol]      -2.32819847 [kJ/mol]
      Disp22 (T)                   -1.56033979 [mEh]      -0.97912800 [kcal/mol]      -4.09667155 [kJ/mol]
      Est. Disp22 (T)              -1.84470743 [mEh]      -1.15757139 [kcal/mol]      -4.84327870 [kJ/mol]
      Exch-Disp20                   2.73567630 [mEh]       1.71666280 [kcal/mol]       7.18251714 [kJ/mol]

  Total HF                         -8.43829775 [mEh]      -5.29511178 [kcal/mol]     -22.15474769 [kJ/mol]
  Total SAPT0                     -14.84978150 [mEh]      -9.31837858 [kcal/mol]     -38.98809597 [kJ/mol]
  Total SAPT2                     -13.45064544 [mEh]      -8.44040744 [kcal/mol]     -35.31466475 [kJ/mol]
  Total SAPT2+                    -15.83601124 [mEh]      -9.93724708 [kcal/mol]     -41.57744177 [kJ/mol]

  Special recipe for scaled SAPT0 (see Manual):
    Electrostatics sSAPT0         -23.73526295 [mEh]     -14.89410237 [kcal/mol]     -62.31692430 [kJ/mol]
    Exchange sSAPT0                31.33598709 [mEh]      19.66362877 [kcal/mol]      82.27262277 [kJ/mol]
    Induction sSAPT0              -15.54598711 [mEh]      -9.75525419 [kcal/mol]     -40.81598353 [kJ/mol]
    Dispersion sSAPT0              -6.30487701 [mEh]      -3.95637006 [kcal/mol]     -16.55345232 [kJ/mol]
  Total sSAPT0                    -14.25013999 [mEh]      -8.94209784 [kcal/mol]     -37.41373738 [kJ/mol]
  --------------------------------------------------------------------------------------------------------

*** Psi4 exiting successfully. Buy a developer a beer!
