                               Psi4 1.9 release

  ==> Input File <==

--------------------------------------------------------------------------
MEMORY 60 GB

molecule dimer {
0 1
O      0.000000     0.000000     0.000000
H      0.090750     0.953257     0.000000
H      1.014404    -0.309825     0.000000
--
-1 1
F      2.426389     0.000000     0.000000

units ang
no_reorient
no_com
symmetry c1
}

set {
basis        aug-cc-pVTZ
scf_type     df
}

energy("sapt2+")
--------------------------------------------------------------------------

  //              Dimer HF             //
    Molecular point group: c1
  Charge       = -1
  Multiplicity = 1
  Basis Set: AUG-CC-PVTZ
    Blend: AUG-CC-PVTZ
  Basis Set: (AUG-CC-PVTZ AUX)
    Blend: AUG-CC-PVTZ-JKFIT
  @DF-RHF Final Energy:  -175.54260305837141
    Total Energy =                       -175.5426030583714123
 Dipole X            :        -46.4015235           43.3553345           -3.0461889
 Dipole Y            :         -0.8497215            1.2159103            0.3661887
 Dipole Z            :          0.0000000            0.0000000            0.0000000
 Magnitude           :                                                    3.0681202
  //            Monomer A HF           //
    Molecular point group: c1
  Multiplicity = 1
  Basis Set: AUG-CC-PVTZ
    Blend: AUG-CC-PVTZ
  Basis Set: (AUG-CC-PVTZ AUX)
    Blend: AUG-CC-PVTZ-JKFIT
  @DF-RHF Final Energy:   -76.04860567921963
    Total Energy =                        -76.0486056792196337
  //            Monomer B HF           //
    Molecular point group: c1

    Geometry (in Angstrom), charge = -1, multiplicity = 1:

       Center              X                  Y                   Z               Mass
    ------------   -----------------  -----------------  -----------------  -----------------
      Gh(O)           0.000000000000     0.000000000000     0.000000000000    15.994914619570
      Gh(H)           0.090750000000     0.953257000000     0.000000000000     1.007825032230
      Gh(H)           1.014404000000    -0.309825000000     0.000000000000     1.007825032230
         F            2.426389000000     0.000000000000     0.000000000000    18.998403162730

  Charge       = -1
  Multiplicity = 1
  Basis Set: AUG-CC-PVTZ
    Blend: AUG-CC-PVTZ
  Basis Set: (AUG-CC-PVTZ AUX)
    Blend: AUG-CC-PVTZ-JKFIT

    Orbital Energies [Eh]
    ---------------------

    Doubly Occupied:

       1A    -25.833796     2A     -1.076016     3A     -0.181025
       4A     -0.180952     5A     -0.180936

  @DF-RHF Final Energy:   -99.45090392734652

   => Energetics <=

    Nuclear Repulsion Energy =              0.0000000000000000
    One-Electron Energy =                -143.9963594312174848
    Two-Electron Energy =                  44.5454555038709614
    Total Energy =                        -99.4509039273465305
 Dipole X            :        -45.8520175           41.2668962           -4.5851214
 Dipole Y            :          0.0005198            0.0000000            0.0005198
 Dipole Z            :          0.0000000            0.0000000            0.0000000
 Magnitude           :                                                    4.5851214

    SAPT Results
  --------------------------------------------------------------------------------------------------------
    Electrostatics                -72.03200271 [mEh]     -45.20076412 [kcal/mol]    -189.11999707 [kJ/mol]
      Elst10,r                    -71.39116706 [mEh]     -44.79863368 [kcal/mol]    -187.43748330 [kJ/mol]
      Elst12,r                     -0.64083565 [mEh]      -0.40213044 [kcal/mol]      -1.68251377 [kJ/mol]

    Exchange                       78.45595270 [mEh]      49.23185359 [kcal/mol]     205.98607542 [kJ/mol]
      Exch10                       65.41983971 [mEh]      41.05156919 [kcal/mol]     171.75976551 [kJ/mol]
      Exch10(S^2)                  63.46249796 [mEh]      39.82331870 [kcal/mol]     166.62076544 [kJ/mol]
      Exch11(S^2)                   0.64925664 [mEh]       0.40741469 [kcal/mol]       1.70462307 [kJ/mol]
      Exch12(S^2)                  12.38685634 [mEh]       7.77286971 [kcal/mol]      32.52168685 [kJ/mol]

    Induction                     -41.72282162 [mEh]     -26.18146584 [kcal/mol]    -109.54325308 [kJ/mol]
      Ind20,r                     -44.90414780 [mEh]     -28.17777816 [kcal/mol]    -117.89582381 [kJ/mol]
      Ind22                        -9.03877954 [mEh]      -5.67191979 [kcal/mol]     -23.73131241 [kJ/mol]
      Exch-Ind20,r                 22.04814334 [mEh]      13.83541882 [kcal/mol]      57.88739236 [kJ/mol]
      Exch-Ind22                    4.43808237 [mEh]       2.78493873 [kcal/mol]      11.65218366 [kJ/mol]
      delta HF,r (2)              -14.26611999 [mEh]      -8.95212545 [kcal/mol]     -37.45569288 [kJ/mol]

    Dispersion                    -14.06704870 [mEh]      -8.82720633 [kcal/mol]     -36.93303128 [kJ/mol]
      Disp20                      -15.25901103 [mEh]      -9.57517398 [kcal/mol]     -40.06252793 [kJ/mol]
      Disp21                        0.83411606 [mEh]       0.52341573 [kcal/mol]       2.18997140 [kJ/mol]
      Disp22 (SDQ)                 -1.48818368 [mEh]      -0.93384936 [kcal/mol]      -3.90722571 [kJ/mol]
      Disp22 (T)                   -2.63881230 [mEh]      -1.65587972 [kcal/mol]      -6.92820074 [kJ/mol]
      Est. Disp22 (T)              -3.04293865 [mEh]      -1.90947283 [kcal/mol]      -7.98923431 [kJ/mol]
      Exch-Disp20                   4.88896859 [mEh]       3.06787411 [kcal/mol]      12.83598526 [kJ/mol]

  Total HF                        -43.09345181 [mEh]     -27.04154927 [kcal/mol]    -113.14184213 [kJ/mol]
  Total SAPT0                     -53.46349424 [mEh]     -33.54884914 [kcal/mol]    -140.36838480 [kJ/mol]
  Total SAPT2                     -45.66891408 [mEh]     -28.65767624 [kcal/mol]    -119.90371739 [kJ/mol]
  Total SAPT2+                    -49.36592034 [mEh]     -30.97758270 [kcal/mol]    -129.61020600 [kJ/mol]

  Special recipe for scaled SAPT0 (see Manual):
    Electrostatics sSAPT0         -71.39116706 [mEh]     -44.79863368 [kcal/mol]    -187.43748330 [kJ/mol]
    Exchange sSAPT0                65.41983971 [mEh]      41.05156919 [kcal/mol]     171.75976551 [kJ/mol]
    Induction sSAPT0              -35.01849784 [mEh]     -21.97443915 [kcal/mol]     -91.94105341 [kJ/mol]
    Dispersion sSAPT0              -9.90358300 [mEh]      -6.21459216 [kcal/mol]     -26.00185359 [kJ/mol]
  Total sSAPT0                    -50.89340819 [mEh]     -31.93609579 [kcal/mol]    -133.62062480 [kJ/mol]
  --------------------------------------------------------------------------------------------------------

*** Psi4 exiting successfully. Buy a developer a beer!
