                               Psi4 1.9 release

  ==> Input File <==

--------------------------------------------------------------------------
MEMORY 60 GB

molecule dimer {
0 1
O      0.000000     0.000000     0.000000
H      0.738224     0.609884     0.000000
H      0.498213    -0.936372     0.000000
--
-1 1
F      2.426389     0.000000     0.000000

units ang
no_reorient
no_com
symmetry c1
}

set {
basis        aug-cc-pVTZ
scf_type     df
}

energy("sapt2+")
--------------------------------------------------------------------------

  //              Dimer HF             //
    Molecular point group: c1
  Charge       = -1
  Multiplicity = 1
  Basis Set: AUG-CC-PVTZ
    Blend: AUG-CC-PVTZ
  Basis Set: (AUG-CC-PVTZ AUX)
    Blend: AUG-CC-PVTZ-JKFIT
  @DF-RHF Final Energy:  -175.52436561542356
    Total Energy =                       -175.5243656154235623
 Dipole X            :        -46.9001082           43.6034235           -3.2966848
 Dipole Y            :          0.4358982           -0.6169729           -0.1810747
 Dipole Z            :          0.0000000            0.0000000            0.0000000
 Magnitude           :                                                    3.3016539
  //            Monomer A HF           //
    Molecular point group: c1
  Multiplicity = 1
  Basis Set: AUG-CC-PVTZ
    Blend: AUG-CC-PVTZ
  Basis Set: (AUG-CC-PVTZ AUX)
    Blend: AUG-CC-PVTZ-JKFIT
  @DF-RHF Final Energy:   -76.04859776891701
    Total Energy =                        -76.0485977689170056
  //            Monomer B HF           //
    Molecular point group: c1

    Geometry (in Angstrom), charge = -1, multiplicity = 1:

       Center              X                  Y                   Z               Mass
    ------------   -----------------  -----------------  -----------------  -----------------
      Gh(O)           0.000000000000     0.000000000000     0.000000000000    15.994914619570
      Gh(H)           0.738224000000     0.609884000000     0.000000000000     1.007825032230
      Gh(H)           0.498213000000    -0.936372000000     0.000000000000     1.007825032230
         F            2.426389000000     0.000000000000     0.000000000000    18.998403162730

  Charge       = -1
  Multiplicity = 1
  Basis Set: AUG-CC-PVTZ
    Blend: AUG-CC-PVTZ
  Basis Set: (AUG-CC-PVTZ AUX)
    Blend: AUG-CC-PVTZ-JKFIT

    Orbital Energies [Eh]
    ---------------------

    Doubly Occupied:

       1A    -25.833778     2A     -1.076028     3A     -0.181024
       4A     -0.180955     5A     -0.180953

  @DF-RHF Final Energy:   -99.45089104614081

   => Energetics <=

    Nuclear Repulsion Energy =              0.0000000000000000
    One-Electron Energy =                -143.9963058760714034
    Two-Electron Energy =                  44.5454148299305928
    Total Energy =                        -99.4508910461408107
 Dipole X            :        -45.8529833           41.2668962           -4.5860871
 Dipole Y            :         -0.0005385            0.0000000           -0.0005385
 Dipole Z            :          0.0000000            0.0000000            0.0000000
 Magnitude           :                                                    4.5860872

    SAPT Results
  --------------------------------------------------------------------------------------------------------
    Electrostatics                -52.37922160 [mEh]     -32.86845778 [kcal/mol]    -137.52162736 [kJ/mol]
      Elst10,r                    -50.14718260 [mEh]     -31.46783216 [kcal/mol]    -131.66140977 [kJ/mol]
      Elst12,r                     -2.23203900 [mEh]      -1.40062562 [kcal/mol]      -5.86021758 [kJ/mol]

    Exchange                       50.63114559 [mEh]      31.77152353 [kcal/mol]     132.93205444 [kJ/mol]
      Exch10                       40.04591601 [mEh]      25.12919168 [kcal/mol]     105.14053800 [kJ/mol]
      Exch10(S^2)                  39.50017150 [mEh]      24.78673183 [kcal/mol]     103.70768598 [kJ/mol]
      Exch11(S^2)                   0.14646281 [mEh]       0.09190680 [kcal/mol]       0.38453806 [kJ/mol]
      Exch12(S^2)                  10.43876677 [mEh]       6.55042504 [kcal/mol]      27.40697838 [kJ/mol]

    Induction                     -17.87390689 [mEh]     -11.21604591 [kcal/mol]     -46.92793608 [kJ/mol]
      Ind20,r                     -27.96698360 [mEh]     -17.54954716 [kcal/mol]     -73.42730532 [kJ/mol]
      Ind22                        -7.73357760 [mEh]      -4.85289321 [kcal/mol]     -20.30450520 [kJ/mol]
      Exch-Ind20,r                 16.76231812 [mEh]      10.51851342 [kcal/mol]      44.00946015 [kJ/mol]
      Exch-Ind22                    4.63520449 [mEh]       2.90863473 [kcal/mol]      12.16972771 [kJ/mol]
      delta HF,r (2)               -3.57086830 [mEh]      -2.24075369 [kcal/mol]      -9.37531343 [kJ/mol]

    Dispersion                    -10.83116873 [mEh]      -6.79666099 [kcal/mol]     -28.43722959 [kJ/mol]
      Disp20                      -11.14930950 [mEh]      -6.99629734 [kcal/mol]     -29.27250807 [kJ/mol]
      Disp21                        0.30287863 [mEh]       0.19005921 [kcal/mol]       0.79520773 [kJ/mol]
      Disp22 (SDQ)                 -1.26560543 [mEh]      -0.79417940 [kcal/mol]      -3.32284659 [kJ/mol]
      Disp22 (T)                   -1.95776827 [mEh]      -1.22851814 [kcal/mol]      -5.14011989 [kJ/mol]
      Est. Disp22 (T)              -2.31952254 [mEh]      -1.45552237 [kcal/mol]      -6.08990558 [kJ/mol]
      Exch-Disp20                   3.60039010 [mEh]       2.25927890 [kcal/mol]       9.45282292 [kJ/mol]

  Total HF                        -24.87680037 [mEh]     -15.61042791 [kcal/mol]     -65.31403036 [kJ/mol]
  Total SAPT0                     -32.42571976 [mEh]     -20.34744635 [kcal/mol]     -85.13371551 [kJ/mol]
  Total SAPT2                     -27.17090229 [mEh]     -17.04999860 [kcal/mol]     -71.33719414 [kJ/mol]
  Total SAPT2+                    -30.45315163 [mEh]     -19.10964115 [kcal/mol]     -79.95473858 [kJ/mol]

  Special recipe for scaled SAPT0 (see Manual):
    Electrostatics sSAPT0         -50.14718260 [mEh]     -31.46783216 [kcal/mol]    -131.66140977 [kJ/mol]
    Exchange sSAPT0                40.04591601 [mEh]      25.12919168 [kcal/mol]     105.14053800 [kJ/mol]
    Induction sSAPT0              -14.07111287 [mEh]      -8.82975663 [kcal/mol]     -36.94370176 [kJ/mol]
    Dispersion sSAPT0              -7.39761634 [mEh]      -4.64207433 [kcal/mol]     -19.42243902 [kJ/mol]
  Total sSAPT0                    -31.56999580 [mEh]     -19.81047145 [kcal/mol]     -82.88701255 [kJ/mol]
  --------------------------------------------------------------------------------------------------------

*** Psi4 exiting successfully. Buy a developer a beer!
