                               Psi4 1.9 release

  ==> Input File <==

--------------------------------------------------------------------------
MEMORY 60 GB

molecule dimer {
0 1
O      0.000000     0.000000     0.000000
H     -0.541683     0.790235     0.000000
H      0.906600     0.393609     0.000000
--
-1 1
Cl     3.070352     0.000000     0.000000

units ang
no_reorient
no_com
symmetry c1
}

set {
basis        aug-cc-pVTZ
scf_type     df
}

energy("sapt2+")
--------------------------------------------------------------------------

  //              Dimer HF             //
    Molecular point group: c1
  Charge       = -1
  Multiplicity = 1
  Basis Set: AUG-CC-PVTZ
    Blend: AUG-CC-PVTZ
  Basis Set: (AUG-CC-PVTZ AUX)
    Blend: AUG-CC-PVTZ-JKFIT
  @DF-RHF Final Energy:  -535.64358400277683
    Total Energy =                       -535.6435840027768336
 Dipole X            :       -104.4410863           99.3257078           -5.1153785
 Dipole Y            :         -1.5872218            2.2371409            0.6499191
 Dipole Z            :         -0.0000000            0.0000000           -0.0000000
 Magnitude           :                                                    5.1565000
  //            Monomer A HF           //
    Molecular point group: c1
  Multiplicity = 1
  Basis Set: AUG-CC-PVTZ
    Blend: AUG-CC-PVTZ
  Basis Set: (AUG-CC-PVTZ AUX)
    Blend: AUG-CC-PVTZ-JKFIT
  @DF-RHF Final Energy:   -76.05822719697929
    Total Energy =                        -76.0582271969792885
  //            Monomer B HF           //
    Molecular point group: c1

    Geometry (in Angstrom), charge = -1, multiplicity = 1:

       Center              X                  Y                   Z               Mass
    ------------   -----------------  -----------------  -----------------  -----------------
      Gh(O)           0.000000000000     0.000000000000     0.000000000000    15.994914619570
      Gh(H)          -0.541683000000     0.790235000000     0.000000000000     1.007825032230
      Gh(H)           0.906600000000     0.393609000000     0.000000000000     1.007825032230
         CL           3.070352000000     0.000000000000     0.000000000000    34.968852682000

  Charge       = -1
  Multiplicity = 1
  Basis Set: AUG-CC-PVTZ
    Blend: AUG-CC-PVTZ
  Basis Set: (AUG-CC-PVTZ AUX)
    Blend: AUG-CC-PVTZ-JKFIT

    Orbital Energies [Eh]
    ---------------------

    Doubly Occupied:

       1A   -104.506322     2A    -10.229826     3A     -7.695890
       4A     -7.695888     5A     -7.695841     6A     -0.733503
       7A     -0.150337     8A     -0.150330     9A     -0.150330

  @DF-RHF Final Energy:  -459.57350659035535

   => Energetics <=

    Nuclear Repulsion Energy =              0.0000000000000000
    One-Electron Energy =                -641.1304778444751946
    Two-Electron Energy =                 181.5569712541198442
    Total Energy =                       -459.5735065903553505
 Dipole X            :       -104.4387362           98.6361146           -5.8026216
 Dipole Y            :          0.0000512            0.0000000            0.0000512
 Dipole Z            :          0.0000000            0.0000000            0.0000000
 Magnitude           :                                                    5.8026216

    SAPT Results
  --------------------------------------------------------------------------------------------------------
    Electrostatics                -23.00723594 [mEh]     -14.43725852 [kcal/mol]     -60.40548965 [kJ/mol]
      Elst10,r                    -22.38548755 [mEh]     -14.04710551 [kcal/mol]     -58.77308945 [kJ/mol]
      Elst12,r                     -0.62174840 [mEh]      -0.39015301 [kcal/mol]      -1.63240019 [kJ/mol]

    Exchange                       22.75139275 [mEh]      14.27671449 [kcal/mol]      59.73377344 [kJ/mol]
      Exch10                       20.66265744 [mEh]      12.96601330 [kcal/mol]      54.24979963 [kJ/mol]
      Exch10(S^2)                  20.39417975 [mEh]      12.79754100 [kcal/mol]      53.54491156 [kJ/mol]
      Exch11(S^2)                   0.61532433 [mEh]       0.38612185 [kcal/mol]       1.61553380 [kJ/mol]
      Exch12(S^2)                   1.47341098 [mEh]       0.92457935 [kcal/mol]       3.86844000 [kJ/mol]

    Induction                     -10.82638903 [mEh]      -6.79366169 [kcal/mol]     -28.42468049 [kJ/mol]
      Ind20,r                     -16.84032112 [mEh]     -10.56746105 [kcal/mol]     -44.21425702 [kJ/mol]
      Ind22                        -1.80859595 [mEh]      -1.13491109 [kcal/mol]      -4.74846800 [kJ/mol]
      Exch-Ind20,r                 10.33171052 [mEh]       6.48324623 [kcal/mol]      27.12590224 [kJ/mol]
      Exch-Ind22                    1.10959225 [mEh]       0.69627965 [kcal/mol]       2.91323404 [kJ/mol]
      delta HF,r (2)               -3.61877473 [mEh]      -2.27081543 [kcal/mol]      -9.50109175 [kJ/mol]

    Dispersion                     -6.63430804 [mEh]      -4.16309115 [kcal/mol]     -17.41837337 [kJ/mol]
      Disp20                       -7.81806081 [mEh]      -4.90590722 [kcal/mol]     -20.52631582 [kJ/mol]
      Disp21                        0.49822207 [mEh]       0.31263907 [kcal/mol]       1.30808187 [kJ/mol]
      Disp22 (SDQ)                  0.08337974 [mEh]       0.05232158 [kcal/mol]       0.21891349 [kJ/mol]
      Disp22 (T)                   -1.17700205 [mEh]      -0.73857994 [kcal/mol]      -3.09021846 [kJ/mol]
      Est. Disp22 (T)              -1.34928408 [mEh]      -0.84668855 [kcal/mol]      -3.54254488 [kJ/mol]
      Exch-Disp20                   1.95143503 [mEh]       1.22454397 [kcal/mol]       5.12349197 [kJ/mol]

  Total HF                        -11.85021544 [mEh]      -7.43612246 [kcal/mol]     -31.11273636 [kJ/mol]
  Total SAPT0                     -17.71684122 [mEh]     -11.11748571 [kcal/mol]     -46.51556020 [kJ/mol]
  Total SAPT2                     -16.94885800 [mEh]     -10.63556896 [kcal/mol]     -44.49922055 [kJ/mol]
  Total SAPT2+                    -17.71654027 [mEh]     -11.11729686 [kcal/mol]     -46.51477006 [kJ/mol]

  Special recipe for scaled SAPT0 (see Manual):
    Electrostatics sSAPT0         -22.38548755 [mEh]     -14.04710551 [kcal/mol]     -58.77308945 [kJ/mol]
    Exchange sSAPT0                20.66265744 [mEh]      12.96601330 [kcal/mol]      54.24979963 [kJ/mol]
    Induction sSAPT0               -9.71395710 [mEh]      -6.09560011 [kcal/mol]     -25.50399085 [kJ/mol]
    Dispersion sSAPT0              -5.78853819 [mEh]      -3.63236255 [kcal/mol]     -15.19780492 [kJ/mol]
  Total sSAPT0                    -17.22532539 [mEh]     -10.80905487 [kcal/mol]     -45.22508558 [kJ/mol]
  --------------------------------------------------------------------------------------------------------

*** Psi4 exiting successfully. Buy a developer a beer!
