                               Psi4 1.9 release

  ==> Input File <==

--------------------------------------------------------------------------
MEMORY 60 GB

molecule dimer {
0 1
O      0.000000     0.000000     0.000000
H     -0.727754     0.623110     0.000000
H      0.773835     0.614842     0.000000
--
-1 1
Cl     3.070352     0.000000     0.000000

units ang
no_reorient
no_com
symmetry c1
}

set {
basis        aug-cc-pVTZ
scf_type     df
}

energy("sapt2+")
--------------------------------------------------------------------------

  //              Dimer HF             //
    Molecular point group: c1
  Charge       = -1
  Multiplicity = 1
  Basis Set: AUG-CC-PVTZ
    Blend: AUG-CC-PVTZ
  Basis Set: (AUG-CC-PVTZ AUX)
    Blend: AUG-CC-PVTZ-JKFIT
  @DF-RHF Final Energy:  -535.63658273648866
    Total Energy =                       -535.6365827364886627
 Dipole X            :       -104.1687357           98.7231951           -5.4455406
 Dipole Y            :         -1.6668079            2.3393902            0.6725823
 Dipole Z            :          0.0000000            0.0000000            0.0000000
 Magnitude           :                                                    5.4869190
  //            Monomer A HF           //
    Molecular point group: c1
  Multiplicity = 1
  Basis Set: AUG-CC-PVTZ
    Blend: AUG-CC-PVTZ
  Basis Set: (AUG-CC-PVTZ AUX)
    Blend: AUG-CC-PVTZ-JKFIT
  @DF-RHF Final Energy:   -76.05822250649352
    Total Energy =                        -76.0582225064935216
  //            Monomer B HF           //
    Molecular point group: c1

    Geometry (in Angstrom), charge = -1, multiplicity = 1:

       Center              X                  Y                   Z               Mass
    ------------   -----------------  -----------------  -----------------  -----------------
      Gh(O)           0.000000000000     0.000000000000     0.000000000000    15.994914619570
      Gh(H)          -0.727754000000     0.623110000000     0.000000000000     1.007825032230
      Gh(H)           0.773835000000     0.614842000000     0.000000000000     1.007825032230
         CL           3.070352000000     0.000000000000     0.000000000000    34.968852682000

  Charge       = -1
  Multiplicity = 1
  Basis Set: AUG-CC-PVTZ
    Blend: AUG-CC-PVTZ
  Basis Set: (AUG-CC-PVTZ AUX)
    Blend: AUG-CC-PVTZ-JKFIT

    Orbital Energies [Eh]
    ---------------------

    Doubly Occupied:

       1A   -104.506227     2A    -10.229801     3A     -7.695856
       4A     -7.695854     5A     -7.695822     6A     -0.733501
       7A     -0.150337     8A     -0.150328     9A     -0.150326

  @DF-RHF Final Energy:  -459.57350227517793

   => Energetics <=

    Nuclear Repulsion Energy =              0.0000000000000000
    One-Electron Energy =                -641.1308984610114976
    Two-Electron Energy =                 181.5573961858335394
    Total Energy =                       -459.5735022751779297
 Dipole X            :       -104.4383287           98.6361146           -5.8022141
 Dipole Y            :          0.0000890            0.0000000            0.0000890
 Dipole Z            :          0.0000000            0.0000000            0.0000000
 Magnitude           :                                                    5.8022141

    SAPT Results
  --------------------------------------------------------------------------------------------------------
    Electrostatics                -14.60466001 [mEh]      -9.16456252 [kcal/mol]     -38.34452958 [kJ/mol]
      Elst10,r                    -13.56691450 [mEh]      -8.51336738 [kcal/mol]     -35.61992911 [kJ/mol]
      Elst12,r                     -1.03774551 [mEh]      -0.65119514 [kcal/mol]      -2.72460047 [kJ/mol]

    Exchange                       17.39157401 [mEh]      10.91337746 [kcal/mol]      45.66157127 [kJ/mol]
      Exch10                       15.73931725 [mEh]       9.87657069 [kcal/mol]      41.32357175 [kJ/mol]
      Exch10(S^2)                  15.59413951 [mEh]       9.78547028 [kcal/mol]      40.94240765 [kJ/mol]
      Exch11(S^2)                   0.35044773 [mEh]       0.21990927 [kcal/mol]       0.92010039 [kJ/mol]
      Exch12(S^2)                   1.30180903 [mEh]       0.81689750 [kcal/mol]       3.41789914 [kJ/mol]

    Induction                      -7.57807139 [mEh]      -4.75531159 [kcal/mol]     -19.89622368 [kJ/mol]
      Ind20,r                     -13.57275594 [mEh]      -8.51703294 [kcal/mol]     -35.63526581 [kJ/mol]
      Ind22                        -1.53953614 [mEh]      -0.96607351 [kcal/mol]      -4.04205157 [kJ/mol]
      Exch-Ind20,r                  8.74403785 [mEh]       5.48696659 [kcal/mol]      22.95746822 [kJ/mol]
      Exch-Ind22                    0.99182232 [mEh]       0.62237790 [kcal/mol]       2.60402914 [kJ/mol]
      delta HF,r (2)               -2.20163948 [mEh]      -1.38154963 [kcal/mol]      -5.78040366 [kJ/mol]

    Dispersion                     -5.57685083 [mEh]      -3.49952673 [kcal/mol]     -14.64201985 [kJ/mol]
      Disp20                       -6.59857805 [mEh]      -4.14067024 [kcal/mol]     -17.32456429 [kJ/mol]
      Disp21                        0.45950942 [mEh]       0.28834652 [kcal/mol]       1.20644182 [kJ/mol]
      Disp22 (SDQ)                  0.05457371 [mEh]       0.03424552 [kcal/mol]       0.14328325 [kJ/mol]
      Disp22 (T)                   -0.99323433 [mEh]      -0.62326395 [kcal/mol]      -2.60773637 [kJ/mol]
      Est. Disp22 (T)              -1.14085329 [mEh]      -0.71589625 [kcal/mol]      -2.99530990 [kJ/mol]
      Exch-Disp20                   1.64849738 [mEh]       1.03444772 [kcal/mol]       4.32812927 [kJ/mol]

  Total HF                         -4.85795482 [mEh]      -3.04841267 [kcal/mol]     -12.75455862 [kJ/mol]
  Total SAPT0                      -9.80803549 [mEh]      -6.15463519 [kcal/mol]     -25.75099363 [kJ/mol]
  Total SAPT2                      -9.74123806 [mEh]      -6.11271917 [kcal/mol]     -25.57561700 [kJ/mol]
  Total SAPT2+                    -10.36800822 [mEh]      -6.50602338 [kcal/mol]     -27.22120184 [kJ/mol]

  Special recipe for scaled SAPT0 (see Manual):
    Electrostatics sSAPT0         -13.56691450 [mEh]      -8.51336738 [kcal/mol]     -35.61992911 [kJ/mol]
    Exchange sSAPT0                15.73931725 [mEh]       9.87657069 [kcal/mol]      41.32357175 [kJ/mol]
    Induction sSAPT0               -6.78386218 [mEh]      -4.25693779 [kcal/mol]     -17.81102769 [kJ/mol]
    Dispersion sSAPT0              -4.90360935 [mEh]      -3.07706132 [kcal/mol]     -12.87442457 [kJ/mol]
  Total sSAPT0                     -9.51506878 [mEh]      -5.97079580 [kcal/mol]     -24.98180963 [kJ/mol]
  --------------------------------------------------------------------------------------------------------

*** Psi4 exiting successfully. Buy a developer a beer!
