                               Psi4 1.9 release

  ==> Input File <==

--------------------------------------------------------------------------
MEMORY 60 GB

molecule dimer {
0 1
O      0.000000     0.000000     0.000000
H      0.175753     0.941808     0.000000
H      0.919386    -0.362740     0.000000
--
-1 1
Cl     3.070352     0.000000     0.000000

units ang
no_reorient
no_com
symmetry c1
}

set {
basis        aug-cc-pVTZ
scf_type     df
}

energy("sapt2+")
--------------------------------------------------------------------------

  //              Dimer HF             //
    Molecular point group: c1
  Charge       = -1
  Multiplicity = 1
  Basis Set: AUG-CC-PVTZ
    Blend: AUG-CC-PVTZ
  Basis Set: (AUG-CC-PVTZ AUX)
    Blend: AUG-CC-PVTZ-JKFIT
  @DF-RHF Final Energy:  -535.65066620778703
    Total Energy =                       -535.6506662077870260
 Dipole X            :       -105.3035205          100.7056274           -4.5978931
 Dipole Y            :         -0.7321713            1.0942799            0.3621086
 Dipole Z            :          0.0000000            0.0000000            0.0000000
 Magnitude           :                                                    4.6121301
  //            Monomer A HF           //
    Molecular point group: c1
  Multiplicity = 1
  Basis Set: AUG-CC-PVTZ
    Blend: AUG-CC-PVTZ
  Basis Set: (AUG-CC-PVTZ AUX)
    Blend: AUG-CC-PVTZ-JKFIT
  @DF-RHF Final Energy:   -76.05822964296870
    Total Energy =                        -76.0582296429686977
  //            Monomer B HF           //
    Molecular point group: c1

    Geometry (in Angstrom), charge = -1, multiplicity = 1:

       Center              X                  Y                   Z               Mass
    ------------   -----------------  -----------------  -----------------  -----------------
      Gh(O)           0.000000000000     0.000000000000     0.000000000000    15.994914619570
      Gh(H)           0.175753000000     0.941808000000     0.000000000000     1.007825032230
      Gh(H)           0.919386000000    -0.362740000000     0.000000000000     1.007825032230
         CL           3.070352000000     0.000000000000     0.000000000000    34.968852682000

  Charge       = -1
  Multiplicity = 1
  Basis Set: AUG-CC-PVTZ
    Blend: AUG-CC-PVTZ
  Basis Set: (AUG-CC-PVTZ AUX)
    Blend: AUG-CC-PVTZ-JKFIT

    Orbital Energies [Eh]
    ---------------------

    Doubly Occupied:

       1A   -104.506310     2A    -10.229825     3A     -7.695885
       4A     -7.695881     5A     -7.695838     6A     -0.733502
       7A     -0.150335     8A     -0.150329     9A     -0.150329

  @DF-RHF Final Energy:  -459.57350615221662

   => Energetics <=

    Nuclear Repulsion Energy =              0.0000000000000000
    One-Electron Energy =                -641.1305410210120499
    Two-Electron Energy =                 181.5570348687954549
    Total Energy =                       -459.5735061522166234
 Dipole X            :       -104.4387345           98.6361146           -5.8026199
 Dipole Y            :         -0.0000972            0.0000000           -0.0000972
 Dipole Z            :          0.0000000            0.0000000            0.0000000
 Magnitude           :                                                    5.8026199

    SAPT Results
  --------------------------------------------------------------------------------------------------------
    Electrostatics                -32.50004825 [mEh]     -20.39408818 [kcal/mol]     -85.32886493 [kJ/mol]
      Elst10,r                    -32.44708452 [mEh]     -20.36085293 [kcal/mol]     -85.18980866 [kJ/mol]
      Elst12,r                     -0.05296374 [mEh]      -0.03323525 [kcal/mol]      -0.13905627 [kJ/mol]

    Exchange                       26.45947942 [mEh]      16.60357401 [kcal/mol]      69.46935365 [kJ/mol]
      Exch10                       23.68021201 [mEh]      14.85955737 [kcal/mol]      62.17238805 [kJ/mol]
      Exch10(S^2)                  23.32900419 [mEh]      14.63917114 [kcal/mol]      61.25029206 [kJ/mol]
      Exch11(S^2)                   0.92978088 [mEh]       0.58344631 [kcal/mol]       2.44113937 [kJ/mol]
      Exch12(S^2)                   1.84948653 [mEh]       1.16057032 [kcal/mol]       4.85582622 [kJ/mol]

    Induction                     -11.01354789 [mEh]      -6.91110564 [kcal/mol]     -28.91606600 [kJ/mol]
      Ind20,r                     -18.74934417 [mEh]     -11.76539110 [kcal/mol]     -49.22639635 [kJ/mol]
      Ind22                        -2.39643673 [mEh]      -1.50378675 [kcal/mol]      -6.29184378 [kJ/mol]
      Exch-Ind20,r                 12.09901683 [mEh]       7.59224768 [kcal/mol]      31.76596430 [kJ/mol]
      Exch-Ind22                    1.54642894 [mEh]       0.97039881 [kcal/mol]       4.06014861 [kJ/mol]
      delta HF,r (2)               -3.51321274 [mEh]      -2.20457428 [kcal/mol]      -9.22393878 [kJ/mol]

    Dispersion                     -7.52945299 [mEh]      -4.72480308 [kcal/mol]     -19.76857609 [kJ/mol]
      Disp20                       -8.75189689 [mEh]      -5.49189821 [kcal/mol]     -22.97810213 [kJ/mol]
      Disp21                        0.51135249 [mEh]       0.32087853 [kcal/mol]       1.34255578 [kJ/mol]
      Disp22 (SDQ)                  0.00533436 [mEh]       0.00334736 [kcal/mol]       0.01400537 [kJ/mol]
      Disp22 (T)                   -1.34492824 [mEh]      -0.84395521 [kcal/mol]      -3.53110861 [kJ/mol]
      Est. Disp22 (T)              -1.55407636 [mEh]      -0.97519764 [kcal/mol]      -4.08022693 [kJ/mol]
      Exch-Disp20                   2.25983341 [mEh]       1.41806688 [kcal/mol]       5.93319181 [kJ/mol]

  Total HF                        -18.93041260 [mEh]     -11.87901325 [kcal/mol]     -49.70179144 [kJ/mol]
  Total SAPT0                     -25.42247608 [mEh]     -15.95284459 [kcal/mol]     -66.74670176 [kJ/mol]
  Total SAPT2                     -23.54618020 [mEh]     -14.77545115 [kcal/mol]     -61.82048759 [kJ/mol]
  Total SAPT2+                    -24.58356970 [mEh]     -15.42642289 [kcal/mol]     -64.54415336 [kJ/mol]

  Special recipe for scaled SAPT0 (see Manual):
    Electrostatics sSAPT0         -32.44708452 [mEh]     -20.36085293 [kcal/mol]     -85.18980866 [kJ/mol]
    Exchange sSAPT0                23.68021201 [mEh]      14.85955737 [kcal/mol]      62.17238805 [kJ/mol]
    Induction sSAPT0               -9.60883645 [mEh]      -6.02963591 [kcal/mol]     -25.22799663 [kJ/mol]
    Dispersion sSAPT0              -6.38845689 [mEh]      -4.00881722 [kcal/mol]     -16.77289127 [kJ/mol]
  Total sSAPT0                    -24.76416586 [mEh]     -15.53974869 [kcal/mol]     -65.01830850 [kJ/mol]
  --------------------------------------------------------------------------------------------------------

*** Psi4 exiting successfully. Buy a developer a beer!
