                               Psi4 1.9 release

  ==> Input File <==

--------------------------------------------------------------------------
MEMORY 60 GB

molecule dimer {
0 1
O      0.000000     0.000000     0.000000
H     -0.864229     0.413522     0.000000
H      0.588334     0.794175     0.000000
--
-1 1
Cl     3.070352     0.000000     0.000000

units ang
no_reorient
no_com
symmetry c1
}

set {
basis        aug-cc-pVTZ
scf_type     df
}

energy("sapt2+")
--------------------------------------------------------------------------

  //              Dimer HF             //
    Molecular point group: c1
  Charge       = -1
  Multiplicity = 1
  Basis Set: AUG-CC-PVTZ
    Blend: AUG-CC-PVTZ
  Basis Set: (AUG-CC-PVTZ AUX)
    Blend: AUG-CC-PVTZ-JKFIT
  @DF-RHF Final Energy:  -535.62930922756584
    Total Energy =                       -535.6293092275658410
 Dipole X            :       -103.8816259           98.1147486           -5.7668773
 Dipole Y            :         -1.6257329            2.2822166            0.6564836
 Dipole Z            :         -0.0000000            0.0000000           -0.0000000
 Magnitude           :                                                    5.8041230
  //            Monomer A HF           //
    Molecular point group: c1
  Multiplicity = 1
  Basis Set: AUG-CC-PVTZ
    Blend: AUG-CC-PVTZ
  Basis Set: (AUG-CC-PVTZ AUX)
    Blend: AUG-CC-PVTZ-JKFIT
  @DF-RHF Final Energy:   -76.05822360928654
    Total Energy =                        -76.0582236092865429
  //            Monomer B HF           //
    Molecular point group: c1

    Geometry (in Angstrom), charge = -1, multiplicity = 1:

       Center              X                  Y                   Z               Mass
    ------------   -----------------  -----------------  -----------------  -----------------
      Gh(O)           0.000000000000     0.000000000000     0.000000000000    15.994914619570
      Gh(H)          -0.864229000000     0.413522000000     0.000000000000     1.007825032230
      Gh(H)           0.588334000000     0.794175000000     0.000000000000     1.007825032230
         CL           3.070352000000     0.000000000000     0.000000000000    34.968852682000

  Charge       = -1
  Multiplicity = 1
  Basis Set: AUG-CC-PVTZ
    Blend: AUG-CC-PVTZ
  Basis Set: (AUG-CC-PVTZ AUX)
    Blend: AUG-CC-PVTZ-JKFIT

    Orbital Energies [Eh]
    ---------------------

    Doubly Occupied:

       1A   -104.506168     2A    -10.229789     3A     -7.695836
       4A     -7.695834     5A     -7.695813     6A     -0.733503
       7A     -0.150338     8A     -0.150328     9A     -0.150326

  @DF-RHF Final Energy:  -459.57349679641538

   => Energetics <=

    Nuclear Repulsion Energy =              0.0000000000000000
    One-Electron Energy =                -641.1311236095766617
    Two-Electron Energy =                 181.5576268131613062
    Total Energy =                       -459.5734967964153839
 Dipole X            :       -104.4380431           98.6361146           -5.8019285
 Dipole Y            :          0.0000603            0.0000000            0.0000603
 Dipole Z            :         -0.0000000            0.0000000           -0.0000000
 Magnitude           :                                                    5.8019285

    SAPT Results
  --------------------------------------------------------------------------------------------------------
    Electrostatics                 -6.17442325 [mEh]      -3.87450908 [kcal/mol]     -16.21094600 [kJ/mol]
      Elst10,r                     -4.72227825 [mEh]      -2.96327434 [kcal/mol]     -12.39833983 [kJ/mol]
      Elst12,r                     -1.45214500 [mEh]      -0.91123474 [kcal/mol]      -3.81260617 [kJ/mol]

    Exchange                       13.46299109 [mEh]       8.44815445 [kcal/mol]      35.34707824 [kJ/mol]
      Exch10                       12.08073656 [mEh]       7.58077664 [kcal/mol]      31.71796947 [kJ/mol]
      Exch10(S^2)                  12.00157191 [mEh]       7.53110007 [kcal/mol]      31.51012270 [kJ/mol]
      Exch11(S^2)                   0.15398887 [mEh]       0.09662948 [kcal/mol]       0.40429773 [kJ/mol]
      Exch12(S^2)                   1.22826566 [mEh]       0.77074834 [kcal/mol]       3.22481103 [kJ/mol]

    Induction                      -5.39778157 [mEh]      -3.38715907 [kcal/mol]     -14.17187355 [kJ/mol]
      Ind20,r                     -11.15429316 [mEh]      -6.99942463 [kcal/mol]     -29.28559266 [kJ/mol]
      Ind22                        -1.37811889 [mEh]      -0.86478266 [kcal/mol]      -3.61825064 [kJ/mol]
      Exch-Ind20,r                  7.50800068 [mEh]       4.71134156 [kcal/mol]      19.71225308 [kJ/mol]
      Exch-Ind22                    0.92761750 [mEh]       0.58208877 [kcal/mol]       2.43545941 [kJ/mol]
      delta HF,r (2)               -1.30098770 [mEh]      -0.81638211 [kcal/mol]      -3.41574274 [kJ/mol]

    Dispersion                     -4.73242550 [mEh]      -2.96964183 [kcal/mol]     -12.42498143 [kJ/mol]
      Disp20                       -5.62251479 [mEh]      -3.52818130 [kcal/mol]     -14.76191054 [kJ/mol]
      Disp21                        0.44828400 [mEh]       0.28130246 [kcal/mol]       1.17696947 [kJ/mol]
      Disp22 (SDQ)                  0.01552639 [mEh]       0.00974296 [kcal/mol]       0.04076454 [kJ/mol]
      Disp22 (T)                   -0.83617250 [mEh]      -0.52470617 [kcal/mol]      -2.19537060 [kJ/mol]
      Est. Disp22 (T)              -0.98085019 [mEh]      -0.61549279 [kcal/mol]      -2.57522182 [kJ/mol]
      Exch-Disp20                   1.40712909 [mEh]       0.88298684 [kcal/mol]       3.69441692 [kJ/mol]

  Total HF                          2.41117814 [mEh]       1.51303712 [kcal/mol]       6.33054732 [kJ/mol]
  Total SAPT0                      -1.80420756 [mEh]      -1.13215734 [kcal/mol]      -4.73694629 [kJ/mol]
  Total SAPT2                      -2.32459942 [mEh]      -1.45870816 [kcal/mol]      -6.10323493 [kJ/mol]
  Total SAPT2+                     -2.84163922 [mEh]      -1.78315553 [kcal/mol]      -7.46072274 [kJ/mol]

  Special recipe for scaled SAPT0 (see Manual):
    Electrostatics sSAPT0          -4.72227825 [mEh]      -2.96327434 [kcal/mol]     -12.39833983 [kJ/mol]
    Exchange sSAPT0                12.08073656 [mEh]       7.58077664 [kcal/mol]      31.71796947 [kJ/mol]
    Induction sSAPT0               -4.79772541 [mEh]      -3.01061814 [kcal/mol]     -12.59642632 [kJ/mol]
    Dispersion sSAPT0              -4.18735655 [mEh]      -2.62760590 [kcal/mol]     -10.99390310 [kJ/mol]
  Total sSAPT0                     -1.62662364 [mEh]      -1.02072174 [kcal/mol]      -4.27069977 [kJ/mol]
  --------------------------------------------------------------------------------------------------------

*** Psi4 exiting successfully. Buy a developer a beer!
