                               Psi4 1.9 release

  ==> Input File <==

--------------------------------------------------------------------------
MEMORY 60 GB

molecule dimer {
0 1
O      0.000000     0.000000     0.000000
H     -0.073994     0.955205     0.000000
H      0.981943    -0.112425     0.000000
--
-1 1
Cl     3.070352     0.000000     0.000000

units ang
no_reorient
no_com
symmetry c1
}

set {
basis        aug-cc-pVTZ
scf_type     df
}

energy("sapt2+")
--------------------------------------------------------------------------

  //              Dimer HF             //
    Molecular point group: c1
  Charge       = -1
  Multiplicity = 1
  Basis Set: AUG-CC-PVTZ
    Blend: AUG-CC-PVTZ
  Basis Set: (AUG-CC-PVTZ AUX)
    Blend: AUG-CC-PVTZ-JKFIT
  @DF-RHF Final Energy:  -535.65104609560740
    Total Energy =                       -535.6510460956073985
 Dipole X            :       -105.0129043          100.3518896           -4.6610147
 Dipole Y            :         -1.0935131            1.5926234            0.4991102
 Dipole Z            :         -0.0000000            0.0000000           -0.0000000
 Magnitude           :                                                    4.6876614
  //            Monomer A HF           //
    Molecular point group: c1
  Multiplicity = 1
  Basis Set: AUG-CC-PVTZ
    Blend: AUG-CC-PVTZ
  Basis Set: (AUG-CC-PVTZ AUX)
    Blend: AUG-CC-PVTZ-JKFIT
  @DF-RHF Final Energy:   -76.05823525536307
    Total Energy =                        -76.0582352553630727
  //            Monomer B HF           //
    Molecular point group: c1

    Geometry (in Angstrom), charge = -1, multiplicity = 1:

       Center              X                  Y                   Z               Mass
    ------------   -----------------  -----------------  -----------------  -----------------
      Gh(O)           0.000000000000     0.000000000000     0.000000000000    15.994914619570
      Gh(H)          -0.073994000000     0.955205000000     0.000000000000     1.007825032230
      Gh(H)           0.981943000000    -0.112425000000     0.000000000000     1.007825032230
         CL           3.070352000000     0.000000000000     0.000000000000    34.968852682000

  Charge       = -1
  Multiplicity = 1
  Basis Set: AUG-CC-PVTZ
    Blend: AUG-CC-PVTZ
  Basis Set: (AUG-CC-PVTZ AUX)
    Blend: AUG-CC-PVTZ-JKFIT

    Orbital Energies [Eh]
    ---------------------

    Doubly Occupied:

       1A   -104.506382     2A    -10.229845     3A     -7.695909
       4A     -7.695906     5A     -7.695853     6A     -0.733503
       7A     -0.150335     8A     -0.150330     9A     -0.150330

  @DF-RHF Final Energy:  -459.57350780901754

   => Energetics <=

    Nuclear Repulsion Energy =              0.0000000000000000
    One-Electron Energy =                -641.1302284797254742
    Two-Electron Energy =                 181.5567206707079322
    Total Energy =                       -459.5735078090175421
 Dipole X            :       -104.4389480           98.6361146           -5.8028334
 Dipole Y            :         -0.0002425            0.0000000           -0.0002425
 Dipole Z            :         -0.0000000            0.0000000           -0.0000000
 Magnitude           :                                                    5.8028334

    SAPT Results
  --------------------------------------------------------------------------------------------------------
    Electrostatics                -32.68278939 [mEh]     -20.50875997 [kcal/mol]     -85.80865172 [kJ/mol]
      Elst10,r                    -32.54529987 [mEh]     -20.42248399 [kcal/mol]     -85.44767303 [kJ/mol]
      Elst12,r                     -0.13748952 [mEh]      -0.08627598 [kcal/mol]      -0.36097868 [kJ/mol]

    Exchange                       28.84639423 [mEh]      18.10138566 [kcal/mol]      75.73619761 [kJ/mol]
      Exch10                       26.01547850 [mEh]      16.32495923 [kcal/mol]      68.30362940 [kJ/mol]
      Exch10(S^2)                  25.57421811 [mEh]      16.04806415 [kcal/mol]      67.14510039 [kJ/mol]
      Exch11(S^2)                   0.97859362 [mEh]       0.61407677 [kcal/mol]       2.56929719 [kJ/mol]
      Exch12(S^2)                   1.85232210 [mEh]       1.16234967 [kcal/mol]       4.86327101 [kJ/mol]

    Induction                     -13.70065848 [mEh]      -8.59729299 [kcal/mol]     -35.97107389 [kJ/mol]
      Ind20,r                     -20.42370894 [mEh]     -12.81607085 [kcal/mol]     -53.62244043 [kJ/mol]
      Ind22                        -2.37860779 [mEh]      -1.49259892 [kcal/mol]      -6.24503389 [kJ/mol]
      Exch-Ind20,r                 12.46025201 [mEh]       7.81892618 [kcal/mol]      32.71438715 [kJ/mol]
      Exch-Ind22                    1.45115917 [mEh]       0.91061613 [kcal/mol]       3.81001788 [kJ/mol]
      delta HF,r (2)               -4.80975294 [mEh]      -3.01816553 [kcal/mol]     -12.62800460 [kJ/mol]

    Dispersion                     -7.84947220 [mEh]      -4.92561817 [kcal/mol]     -20.60878642 [kJ/mol]
      Disp20                       -9.17009226 [mEh]      -5.75431977 [kcal/mol]     -24.07607391 [kJ/mol]
      Disp21                        0.55227686 [mEh]       0.34655896 [kcal/mol]       1.45000269 [kJ/mol]
      Disp22 (SDQ)                  0.05218210 [mEh]       0.03274476 [kcal/mol]       0.13700407 [kJ/mol]
      Disp22 (T)                   -1.39223041 [mEh]      -0.87363777 [kcal/mol]      -3.65530043 [kJ/mol]
      Est. Disp22 (T)              -1.60371346 [mEh]      -1.00634539 [kcal/mol]      -4.21054912 [kJ/mol]
      Exch-Disp20                   2.31987457 [mEh]       1.45574327 [kcal/mol]       6.09082985 [kJ/mol]

  Total HF                        -19.30303123 [mEh]     -12.11283497 [kcal/mol]     -50.68010150 [kJ/mol]
  Total SAPT0                     -26.15324891 [mEh]     -16.41141146 [kcal/mol]     -68.66534556 [kJ/mol]
  Total SAPT2                     -24.38727133 [mEh]     -15.30324380 [kcal/mol]     -64.02877206 [kJ/mol]
  Total SAPT2+                    -25.38652584 [mEh]     -15.93028547 [kcal/mol]     -66.65231442 [kJ/mol]

  Special recipe for scaled SAPT0 (see Manual):
    Electrostatics sSAPT0         -32.54529987 [mEh]     -20.42248399 [kcal/mol]     -85.44767303 [kJ/mol]
    Exchange sSAPT0                26.01547850 [mEh]      16.32495923 [kcal/mol]      68.30362940 [kJ/mol]
    Induction sSAPT0              -12.11704573 [mEh]      -7.60356099 [kcal/mol]     -31.81329918 [kJ/mol]
    Dispersion sSAPT0              -6.72805174 [mEh]      -4.22191621 [kcal/mol]     -17.66449741 [kJ/mol]
  Total sSAPT0                    -25.37491884 [mEh]     -15.92300197 [kcal/mol]     -66.62184023 [kJ/mol]
  --------------------------------------------------------------------------------------------------------

*** Psi4 exiting successfully. Buy a developer a beer!
