                               Psi4 1.9 release

  ==> Input File <==

--------------------------------------------------------------------------
MEMORY 60 GB

molecule dimer {
0 1
O      0.000000     0.000000     0.000000
H      0.623110     0.727754     0.000000
H      0.614842    -0.773835     0.000000
--
-1 1
Cl     3.070352     0.000000     0.000000

units ang
no_reorient
no_com
symmetry c1
}

set {
basis        aug-cc-pVTZ
scf_type     df
}

energy("sapt2+")
--------------------------------------------------------------------------

  //              Dimer HF             //
    Molecular point group: c1
  Charge       = -1
  Multiplicity = 1
  Basis Set: AUG-CC-PVTZ
    Blend: AUG-CC-PVTZ
  Basis Set: (AUG-CC-PVTZ AUX)
    Blend: AUG-CC-PVTZ-JKFIT
  @DF-RHF Final Energy:  -535.64838604139698
    Total Energy =                       -535.6483860413969751
 Dipole X            :       -105.5937076          100.9755048           -4.6182027
 Dipole Y            :          0.0626649           -0.0870805           -0.0244156
 Dipole Z            :          0.0000000            0.0000000            0.0000000
 Magnitude           :                                                    4.6182673
  //            Monomer A HF           //
    Molecular point group: c1
  Multiplicity = 1
  Basis Set: AUG-CC-PVTZ
    Blend: AUG-CC-PVTZ
  Basis Set: (AUG-CC-PVTZ AUX)
    Blend: AUG-CC-PVTZ-JKFIT
  @DF-RHF Final Energy:   -76.05822229361017
    Total Energy =                        -76.0582222936101715
  //            Monomer B HF           //
    Molecular point group: c1

    Geometry (in Angstrom), charge = -1, multiplicity = 1:

       Center              X                  Y                   Z               Mass
    ------------   -----------------  -----------------  -----------------  -----------------
      Gh(O)           0.000000000000     0.000000000000     0.000000000000    15.994914619570
      Gh(H)           0.623110000000     0.727754000000     0.000000000000     1.007825032230
      Gh(H)           0.614842000000    -0.773835000000     0.000000000000     1.007825032230
         CL           3.070352000000     0.000000000000     0.000000000000    34.968852682000

  Charge       = -1
  Multiplicity = 1
  Basis Set: AUG-CC-PVTZ
    Blend: AUG-CC-PVTZ
  Basis Set: (AUG-CC-PVTZ AUX)
    Blend: AUG-CC-PVTZ-JKFIT

    Orbital Energies [Eh]
    ---------------------

    Doubly Occupied:

       1A   -104.506231     2A    -10.229805     3A     -7.695857
       4A     -7.695851     5A     -7.695831     6A     -0.733502
       7A     -0.150337     8A     -0.150327     9A     -0.150326

  @DF-RHF Final Energy:  -459.57349980640225

   => Energetics <=

    Nuclear Repulsion Energy =              0.0000000000000000
    One-Electron Energy =                -641.1308651699922621
    Two-Electron Energy =                 181.5573653635900371
    Total Energy =                       -459.5734998064021966
 Dipole X            :       -104.4381756           98.6361146           -5.8020610
 Dipole Y            :          0.0000152            0.0000000            0.0000152
 Dipole Z            :         -0.0000000            0.0000000           -0.0000000
 Magnitude           :                                                    5.8020610

    SAPT Results
  --------------------------------------------------------------------------------------------------------
    Electrostatics                -29.67021948 [mEh]     -18.61834381 [kcal/mol]     -77.89915050 [kJ/mol]
      Elst10,r                    -29.67404385 [mEh]     -18.62074364 [kcal/mol]     -77.90919140 [kJ/mol]
      Elst12,r                      0.00382437 [mEh]       0.00239983 [kcal/mol]       0.01004089 [kJ/mol]

    Exchange                       21.38351513 [mEh]      13.41835833 [kcal/mol]      56.14241124 [kJ/mol]
      Exch10                       18.91678912 [mEh]      11.87046439 [kcal/mol]      49.66602299 [kJ/mol]
      Exch10(S^2)                  18.72183788 [mEh]      11.74813063 [kcal/mol]      49.15417857 [kJ/mol]
      Exch11(S^2)                   0.73705277 [mEh]       0.46250760 [kcal/mol]       1.93513178 [kJ/mol]
      Exch12(S^2)                   1.72967324 [mEh]       1.08538634 [kcal/mol]       4.54125646 [kJ/mol]

    Induction                      -6.55889702 [mEh]      -4.11577002 [kcal/mol]     -17.22038175 [kJ/mol]
      Ind20,r                     -15.43997156 [mEh]      -9.68872843 [kcal/mol]     -40.53763975 [kJ/mol]
      Ind22                        -2.25376059 [mEh]      -1.41425612 [kcal/mol]      -5.91724762 [kJ/mol]
      Exch-Ind20,r                 10.97183528 [mEh]       6.88493059 [kcal/mol]      28.80654957 [kJ/mol]
      Exch-Ind22                    1.60155023 [mEh]       1.00498794 [kcal/mol]       4.20486955 [kJ/mol]
      delta HF,r (2)               -1.43855038 [mEh]      -0.90270399 [kcal/mol]      -3.77691349 [kJ/mol]

    Dispersion                     -6.73690691 [mEh]      -4.22747291 [kcal/mol]     -17.68774665 [kJ/mol]
      Disp20                       -7.76152493 [mEh]      -4.87043043 [kcal/mol]     -20.37788090 [kJ/mol]
      Disp21                        0.43380362 [mEh]       0.27221588 [kcal/mol]       1.13895125 [kJ/mol]
      Disp22 (SDQ)                 -0.05077088 [mEh]      -0.03185921 [kcal/mol]      -0.13329894 [kJ/mol]
      Disp22 (T)                   -1.20868803 [mEh]      -0.75846319 [kcal/mol]      -3.17340998 [kJ/mol]
      Est. Disp22 (T)              -1.41345735 [mEh]      -0.88695788 [kcal/mol]      -3.71103177 [kJ/mol]
      Exch-Disp20                   2.05504264 [mEh]       1.28955873 [kcal/mol]       5.39551371 [kJ/mol]

  Total HF                        -16.66394138 [mEh]     -10.45678109 [kcal/mol]     -43.75117208 [kJ/mol]
  Total SAPT0                     -22.37042368 [mEh]     -14.03765279 [kcal/mol]     -58.73353927 [kJ/mol]
  Total SAPT2                     -20.55208366 [mEh]     -12.89662720 [kcal/mol]     -53.95948821 [kJ/mol]
  Total SAPT2+                    -21.58250827 [mEh]     -13.54322841 [kcal/mol]     -56.66486767 [kJ/mol]

  Special recipe for scaled SAPT0 (see Manual):
    Electrostatics sSAPT0         -29.67404385 [mEh]     -18.62074364 [kcal/mol]     -77.90919140 [kJ/mol]
    Exchange sSAPT0                18.91678912 [mEh]      11.87046439 [kcal/mol]      49.66602299 [kJ/mol]
    Induction sSAPT0               -5.56035472 [mEh]      -3.48917526 [kcal/mol]     -14.59870930 [kJ/mol]
    Dispersion sSAPT0              -5.64161376 [mEh]      -3.54016608 [kcal/mol]     -14.81205488 [kJ/mol]
  Total sSAPT0                    -21.95922320 [mEh]     -13.77962060 [kcal/mol]     -57.65393258 [kJ/mol]
  --------------------------------------------------------------------------------------------------------

*** Psi4 exiting successfully. Buy a developer a beer!
