                               Psi4 1.9 release

  ==> Input File <==

--------------------------------------------------------------------------
MEMORY 60 GB

molecule dimer {
0 1
O      0.000000     0.000000     0.000000
H      0.790235     0.541683     0.000000
H      0.393609    -0.906600     0.000000
--
-1 1
Cl     3.070352     0.000000     0.000000

units ang
no_reorient
no_com
symmetry c1
}

set {
basis        aug-cc-pVTZ
scf_type     df
}

energy("sapt2+")
--------------------------------------------------------------------------

  //              Dimer HF             //
    Molecular point group: c1
  Charge       = -1
  Multiplicity = 1
  Basis Set: AUG-CC-PVTZ
    Blend: AUG-CC-PVTZ
  Basis Set: (AUG-CC-PVTZ AUX)
    Blend: AUG-CC-PVTZ-JKFIT
  @DF-RHF Final Energy:  -535.64886964559844
    Total Energy =                       -535.6488696455985519
 Dipole X            :       -105.4995315          100.8732555           -4.6262760
 Dipole Y            :          0.4627646           -0.6895932           -0.2268286
 Dipole Z            :         -0.0000000            0.0000000           -0.0000000
 Magnitude           :                                                    4.6318334
  //            Monomer A HF           //
    Molecular point group: c1
  Multiplicity = 1
  Basis Set: AUG-CC-PVTZ
    Blend: AUG-CC-PVTZ
  Basis Set: (AUG-CC-PVTZ AUX)
    Blend: AUG-CC-PVTZ-JKFIT
  @DF-RHF Final Energy:   -76.05822562015781
    Total Energy =                        -76.0582256201577991
  //            Monomer B HF           //
    Molecular point group: c1

    Geometry (in Angstrom), charge = -1, multiplicity = 1:

       Center              X                  Y                   Z               Mass
    ------------   -----------------  -----------------  -----------------  -----------------
      Gh(O)           0.000000000000     0.000000000000     0.000000000000    15.994914619570
      Gh(H)           0.790235000000     0.541683000000     0.000000000000     1.007825032230
      Gh(H)           0.393609000000    -0.906600000000     0.000000000000     1.007825032230
         CL           3.070352000000     0.000000000000     0.000000000000    34.968852682000

  Charge       = -1
  Multiplicity = 1
  Basis Set: AUG-CC-PVTZ
    Blend: AUG-CC-PVTZ
  Basis Set: (AUG-CC-PVTZ AUX)
    Blend: AUG-CC-PVTZ-JKFIT

    Orbital Energies [Eh]
    ---------------------

    Doubly Occupied:

       1A   -104.506254     2A    -10.229810     3A     -7.695865
       4A     -7.695860     5A     -7.695832     6A     -0.733502
       7A     -0.150337     8A     -0.150328     9A     -0.150327

  @DF-RHF Final Energy:  -459.57350277933364

   => Energetics <=

    Nuclear Repulsion Energy =              0.0000000000000000
    One-Electron Energy =                -641.1307736221333471
    Two-Electron Energy =                 181.5572708427997100
    Total Energy =                       -459.5735027793336371
 Dipole X            :       -104.4384012           98.6361146           -5.8022866
 Dipole Y            :          0.0000764            0.0000000            0.0000764
 Dipole Z            :          0.0000000            0.0000000            0.0000000
 Magnitude           :                                                    5.8022866

    SAPT Results
  --------------------------------------------------------------------------------------------------------
    Electrostatics                -30.24863564 [mEh]     -18.98130543 [kcal/mol]     -79.41778194 [kJ/mol]
      Elst10,r                    -30.24351284 [mEh]     -18.97809083 [kcal/mol]     -79.40433201 [kJ/mol]
      Elst12,r                     -0.00512280 [mEh]      -0.00321461 [kcal/mol]      -0.01344992 [kJ/mol]

    Exchange                       22.58315730 [mEh]      14.17114516 [kcal/mol]      59.29207133 [kJ/mol]
      Exch10                       20.05358789 [mEh]      12.58381639 [kcal/mol]      52.65068776 [kJ/mol]
      Exch10(S^2)                  19.82468296 [mEh]      12.44017637 [kcal/mol]      52.04969793 [kJ/mol]
      Exch11(S^2)                   0.75771935 [mEh]       0.47547607 [kcal/mol]       1.98939187 [kJ/mol]
      Exch12(S^2)                   1.77185006 [mEh]       1.11185270 [kcal/mol]       4.65199170 [kJ/mol]

    Induction                      -7.65328343 [mEh]      -4.80250786 [kcal/mol]     -20.09369288 [kJ/mol]
      Ind20,r                     -16.24862433 [mEh]     -10.19616570 [kcal/mol]     -42.66075730 [kJ/mol]
      Ind22                        -2.28310943 [mEh]      -1.43267280 [kcal/mol]      -5.99430298 [kJ/mol]
      Exch-Ind20,r                 11.25284048 [mEh]       7.06126401 [kcal/mol]      29.54432860 [kJ/mol]
      Exch-Ind22                    1.58114716 [mEh]       0.99218482 [kcal/mol]       4.15130130 [kJ/mol]
      delta HF,r (2)               -1.95553731 [mEh]      -1.22711819 [kcal/mol]      -5.13426250 [kJ/mol]

    Dispersion                     -6.89495916 [mEh]      -4.32665220 [kcal/mol]     -18.10271279 [kJ/mol]
      Disp20                       -7.96517778 [mEh]      -4.99822452 [kcal/mol]     -20.91257139 [kJ/mol]
      Disp21                        0.44845930 [mEh]       0.28141246 [kcal/mol]       1.17742972 [kJ/mol]
      Disp22 (SDQ)                 -0.03812939 [mEh]      -0.02392655 [kcal/mol]      -0.10010870 [kJ/mol]
      Disp22 (T)                   -1.24134663 [mEh]      -0.77895677 [kcal/mol]      -3.25915514 [kJ/mol]
      Est. Disp22 (T)              -1.43446105 [mEh]      -0.90013790 [kcal/mol]      -3.76617697 [kJ/mol]
      Exch-Disp20                   2.09434977 [mEh]       1.31422432 [kcal/mol]       5.49871455 [kJ/mol]

  Total HF                        -17.14124611 [mEh]     -10.75629432 [kcal/mol]     -45.00433545 [kJ/mol]
  Total SAPT0                     -23.01207412 [mEh]     -14.44029452 [kcal/mol]     -60.41819229 [kJ/mol]
  Total SAPT2                     -21.18958979 [mEh]     -13.29666834 [kcal/mol]     -55.63326032 [kJ/mol]
  Total SAPT2+                    -22.21372093 [mEh]     -13.93932033 [kcal/mol]     -58.32211628 [kJ/mol]

  Special recipe for scaled SAPT0 (see Manual):
    Electrostatics sSAPT0         -30.24351284 [mEh]     -18.97809083 [kcal/mol]     -79.40433201 [kJ/mol]
    Exchange sSAPT0                20.05358789 [mEh]      12.58381639 [kcal/mol]      52.65068776 [kJ/mol]
    Induction sSAPT0               -6.55701167 [mEh]      -4.11458694 [kcal/mol]     -17.21543176 [kJ/mol]
    Dispersion sSAPT0              -5.79744015 [mEh]      -3.63794862 [kcal/mol]     -15.22117701 [kJ/mol]
  Total sSAPT0                    -22.54437676 [mEh]     -14.14681000 [kcal/mol]     -59.19025302 [kJ/mol]
  --------------------------------------------------------------------------------------------------------

*** Psi4 exiting successfully. Buy a developer a beer!
