                               Psi4 1.9 release

  ==> Input File <==

--------------------------------------------------------------------------
MEMORY 60 GB

molecule dimer {
0 1
O      0.000000     0.000000     0.000000
H      0.413522     0.864229     0.000000
H      0.794175    -0.588334     0.000000
--
-1 1
Cl     3.070352     0.000000     0.000000

units ang
no_reorient
no_com
symmetry c1
}

set {
basis        aug-cc-pVTZ
scf_type     df
}

energy("sapt2+")
--------------------------------------------------------------------------

  //              Dimer HF             //
    Molecular point group: c1
  Charge       = -1
  Multiplicity = 1
  Basis Set: AUG-CC-PVTZ
    Blend: AUG-CC-PVTZ
  Basis Set: (AUG-CC-PVTZ AUX)
    Blend: AUG-CC-PVTZ-JKFIT
  @DF-RHF Final Energy:  -535.64919914313123
    Total Energy =                       -535.6491991431312272
 Dipole X            :       -105.5200609          100.9183312           -4.6017297
 Dipole Y            :         -0.3396686            0.5213660            0.1816973
 Dipole Z            :         -0.0000000            0.0000000           -0.0000000
 Magnitude           :                                                    4.6053155
  //            Monomer A HF           //
    Molecular point group: c1
  Multiplicity = 1
  Basis Set: AUG-CC-PVTZ
    Blend: AUG-CC-PVTZ
  Basis Set: (AUG-CC-PVTZ AUX)
    Blend: AUG-CC-PVTZ-JKFIT
  @DF-RHF Final Energy:   -76.05822405752149
    Total Energy =                        -76.0582240575214854
  //            Monomer B HF           //
    Molecular point group: c1

    Geometry (in Angstrom), charge = -1, multiplicity = 1:

       Center              X                  Y                   Z               Mass
    ------------   -----------------  -----------------  -----------------  -----------------
      Gh(O)           0.000000000000     0.000000000000     0.000000000000    15.994914619570
      Gh(H)           0.413522000000     0.864229000000     0.000000000000     1.007825032230
      Gh(H)           0.794175000000    -0.588334000000     0.000000000000     1.007825032230
         CL           3.070352000000     0.000000000000     0.000000000000    34.968852682000

  Charge       = -1
  Multiplicity = 1
  Basis Set: AUG-CC-PVTZ
    Blend: AUG-CC-PVTZ
  Basis Set: (AUG-CC-PVTZ AUX)
    Blend: AUG-CC-PVTZ-JKFIT

    Orbital Energies [Eh]
    ---------------------

    Doubly Occupied:

       1A   -104.506250     2A    -10.229809     3A     -7.695864
       4A     -7.695859     5A     -7.695832     6A     -0.733502
       7A     -0.150337     8A     -0.150328     9A     -0.150327

  @DF-RHF Final Energy:  -459.57350231688821

   => Energetics <=

    Nuclear Repulsion Energy =              0.0000000000000000
    One-Electron Energy =                -641.1307894605990896
    Two-Electron Energy =                 181.5572871437108518
    Total Energy =                       -459.5735023168882663
 Dipole X            :       -104.4383595           98.6361146           -5.8022449
 Dipole Y            :         -0.0000733            0.0000000           -0.0000733
 Dipole Z            :         -0.0000000            0.0000000           -0.0000000
 Magnitude           :                                                    5.8022449

    SAPT Results
  --------------------------------------------------------------------------------------------------------
    Electrostatics                -30.73493788 [mEh]     -19.28646470 [kcal/mol]     -80.69456829 [kJ/mol]
      Elst10,r                    -30.72314587 [mEh]     -19.27906510 [kcal/mol]     -80.66360838 [kJ/mol]
      Elst12,r                     -0.01179201 [mEh]      -0.00739960 [kcal/mol]      -0.03095991 [kJ/mol]

    Exchange                       23.00179558 [mEh]      14.43384464 [kcal/mol]      60.39120596 [kJ/mol]
      Exch10                       20.42273802 [mEh]      12.81546159 [kcal/mol]      53.61989128 [kJ/mol]
      Exch10(S^2)                  20.18209913 [mEh]      12.66445841 [kcal/mol]      52.98809398 [kJ/mol]
      Exch11(S^2)                   0.80965390 [mEh]       0.50806549 [kcal/mol]       2.12574602 [kJ/mol]
      Exch12(S^2)                   1.76940366 [mEh]       1.11031756 [kcal/mol]       4.64556867 [kJ/mol]

    Induction                      -7.89003663 [mEh]      -4.95107273 [kcal/mol]     -20.71528832 [kJ/mol]
      Ind20,r                     -16.47179238 [mEh]     -10.33620577 [kcal/mol]     -43.24668493 [kJ/mol]
      Ind22                        -2.30684958 [mEh]      -1.44756997 [kcal/mol]      -6.05663274 [kJ/mol]
      Exch-Ind20,r                 11.34731165 [mEh]       7.12054556 [kcal/mol]      29.79236263 [kJ/mol]
      Exch-Ind22                    1.58917381 [mEh]       0.99722162 [kcal/mol]       4.17237527 [kJ/mol]
      delta HF,r (2)               -2.04788013 [mEh]      -1.28506418 [kcal/mol]      -5.37670855 [kJ/mol]

    Dispersion                     -7.00179362 [mEh]      -4.39369183 [kcal/mol]     -18.38320662 [kJ/mol]
      Disp20                       -8.09307584 [mEh]      -5.07848176 [kcal/mol]     -21.24836770 [kJ/mol]
      Disp21                        0.45856067 [mEh]       0.28775116 [kcal/mol]       1.20395087 [kJ/mol]
      Disp22 (SDQ)                 -0.03459703 [mEh]      -0.02170997 [kcal/mol]      -0.09083450 [kJ/mol]
      Disp22 (T)                   -1.26480069 [mEh]      -0.79367441 [kcal/mol]      -3.32073374 [kJ/mol]
      Est. Disp22 (T)              -1.46097344 [mEh]      -0.91677468 [kcal/mol]      -3.83578525 [kJ/mol]
      Exch-Disp20                   2.12829203 [mEh]       1.33552341 [kcal/mol]       5.58782996 [kJ/mol]

  Total HF                        -17.47276872 [mEh]     -10.96432791 [kcal/mol]     -45.87474796 [kJ/mol]
  Total SAPT0                     -23.43755253 [mEh]     -14.70728626 [kcal/mol]     -61.53528570 [kJ/mol]
  Total SAPT2                     -21.58796275 [mEh]     -13.54665114 [kcal/mol]     -56.67918839 [kJ/mol]
  Total SAPT2+                    -22.62497256 [mEh]     -14.19738462 [kcal/mol]     -59.40185727 [kJ/mol]

  Special recipe for scaled SAPT0 (see Manual):
    Electrostatics sSAPT0         -30.72314587 [mEh]     -19.27906510 [kcal/mol]     -80.66360838 [kJ/mol]
    Exchange sSAPT0                20.42273802 [mEh]      12.81546159 [kcal/mol]      53.61989128 [kJ/mol]
    Induction sSAPT0               -6.76160698 [mEh]      -4.24297244 [kcal/mol]     -17.75259669 [kJ/mol]
    Dispersion sSAPT0              -5.88774317 [mEh]      -3.69461462 [kcal/mol]     -15.45826756 [kJ/mol]
  Total sSAPT0                    -22.94975801 [mEh]     -14.40119057 [kcal/mol]     -60.25458135 [kJ/mol]
  --------------------------------------------------------------------------------------------------------

*** Psi4 exiting successfully. Buy a developer a beer!
