                               Psi4 1.9 release

  ==> Input File <==

--------------------------------------------------------------------------
MEMORY 60 GB

molecule dimer {
0 1
O      0.000000     0.000000     0.000000
H     -0.318698     0.903506     0.000000
H      0.977582     0.145551     0.000000
--
-1 1
Cl     3.070352     0.000000     0.000000

units ang
no_reorient
no_com
symmetry c1
}

set {
basis        aug-cc-pVTZ
scf_type     df
}

energy("sapt2+")
--------------------------------------------------------------------------

  //              Dimer HF             //
    Molecular point group: c1
  Charge       = -1
  Multiplicity = 1
  Basis Set: AUG-CC-PVTZ
    Blend: AUG-CC-PVTZ
  Basis Set: (AUG-CC-PVTZ AUX)
    Blend: AUG-CC-PVTZ-JKFIT
  @DF-RHF Final Energy:  -535.64877614008833
    Total Energy =                       -535.6487761400883301
 Dipole X            :       -104.7169781           99.8812249           -4.8357532
 Dipole Y            :         -1.3895689            1.9824304            0.5928615
 Dipole Z            :          0.0000000            0.0000000            0.0000000
 Magnitude           :                                                    4.8719599
  //            Monomer A HF           //
    Molecular point group: c1
  Multiplicity = 1
  Basis Set: AUG-CC-PVTZ
    Blend: AUG-CC-PVTZ
  Basis Set: (AUG-CC-PVTZ AUX)
    Blend: AUG-CC-PVTZ-JKFIT
  @DF-RHF Final Energy:   -76.05823486420060
    Total Energy =                        -76.0582348642005996
  //            Monomer B HF           //
    Molecular point group: c1

    Geometry (in Angstrom), charge = -1, multiplicity = 1:

       Center              X                  Y                   Z               Mass
    ------------   -----------------  -----------------  -----------------  -----------------
      Gh(O)           0.000000000000     0.000000000000     0.000000000000    15.994914619570
      Gh(H)          -0.318698000000     0.903506000000     0.000000000000     1.007825032230
      Gh(H)           0.977582000000     0.145551000000     0.000000000000     1.007825032230
         CL           3.070352000000     0.000000000000     0.000000000000    34.968852682000

  Charge       = -1
  Multiplicity = 1
  Basis Set: AUG-CC-PVTZ
    Blend: AUG-CC-PVTZ
  Basis Set: (AUG-CC-PVTZ AUX)
    Blend: AUG-CC-PVTZ-JKFIT

    Orbital Energies [Eh]
    ---------------------

    Doubly Occupied:

       1A   -104.506411     2A    -10.229853     3A     -7.695919
       4A     -7.695915     5A     -7.695862     6A     -0.733504
       7A     -0.150336     8A     -0.150332     9A     -0.150331

  @DF-RHF Final Energy:  -459.57350866002957

   => Energetics <=

    Nuclear Repulsion Energy =              0.0000000000000000
    One-Electron Energy =                -641.1300905653665723
    Two-Electron Energy =                 181.5565819053369978
    Total Energy =                       -459.5735086600295745
 Dipole X            :       -104.4389537           98.6361146           -5.8028391
 Dipole Y            :         -0.0001171            0.0000000           -0.0001171
 Dipole Z            :         -0.0000000            0.0000000           -0.0000000
 Magnitude           :                                                    5.8028391

    SAPT Results
  --------------------------------------------------------------------------------------------------------
    Electrostatics                -29.52562014 [mEh]     -18.52760635 [kcal/mol]     -77.51950499 [kJ/mol]
      Elst10,r                    -29.21533753 [mEh]     -18.33290108 [kcal/mol]     -76.70485811 [kJ/mol]
      Elst12,r                     -0.31028261 [mEh]      -0.19470528 [kcal/mol]      -0.81464688 [kJ/mol]

    Exchange                       27.48438923 [mEh]      17.24671463 [kcal/mol]      72.16025399 [kJ/mol]
      Exch10                       24.91924054 [mEh]      15.63705952 [kcal/mol]      65.42545702 [kJ/mol]
      Exch10(S^2)                  24.51450741 [mEh]      15.38308564 [kcal/mol]      64.36283033 [kJ/mol]
      Exch11(S^2)                   0.86397775 [mEh]       0.54215422 [kcal/mol]       2.26837326 [kJ/mol]
      Exch12(S^2)                   1.70117095 [mEh]       1.06750089 [kcal/mol]       4.46642371 [kJ/mol]

    Induction                     -13.59722804 [mEh]      -8.53238941 [kcal/mol]     -35.69951730 [kJ/mol]
      Ind20,r                     -19.70983856 [mEh]     -12.36811042 [kcal/mol]     -51.74817401 [kJ/mol]
      Ind22                        -2.14605985 [mEh]      -1.34667289 [kcal/mol]      -5.63447936 [kJ/mol]
      Exch-Ind20,r                 11.80491517 [mEh]       7.40769611 [kcal/mol]      30.99380051 [kJ/mol]
      Exch-Ind22                    1.28535068 [mEh]       0.80656973 [kcal/mol]       3.37468775 [kJ/mol]
      delta HF,r (2)               -4.83159548 [mEh]      -3.03187194 [kcal/mol]     -12.68535219 [kJ/mol]

    Dispersion                     -7.53566032 [mEh]      -4.72869824 [kcal/mol]     -19.78487343 [kJ/mol]
      Disp20                       -8.84392721 [mEh]      -5.54964811 [kcal/mol]     -23.21972770 [kJ/mol]
      Disp21                        0.54364728 [mEh]       0.34114382 [kcal/mol]       1.42734574 [kJ/mol]
      Disp22 (SDQ)                  0.08367357 [mEh]       0.05250596 [kcal/mol]       0.21968493 [kJ/mol]
      Disp22 (T)                   -1.32874448 [mEh]      -0.83379975 [kcal/mol]      -3.48861815 [kJ/mol]
      Est. Disp22 (T)              -1.53047618 [mEh]      -0.96038830 [kcal/mol]      -4.01826464 [kJ/mol]
      Exch-Disp20                   2.21142222 [mEh]       1.38768839 [kcal/mol]       5.80608824 [kJ/mol]

  Total HF                        -17.03261586 [mEh]     -10.68812781 [kcal/mol]     -44.71912677 [kJ/mol]
  Total SAPT0                     -23.66512085 [mEh]     -14.85008753 [kcal/mol]     -62.13276623 [kJ/mol]
  Total SAPT2                     -22.27096393 [mEh]     -13.97524086 [kcal/mol]     -58.47240775 [kJ/mol]
  Total SAPT2+                    -23.17411926 [mEh]     -14.54197938 [kcal/mol]     -60.84364172 [kJ/mol]

  Special recipe for scaled SAPT0 (see Manual):
    Electrostatics sSAPT0         -29.21533753 [mEh]     -18.33290108 [kcal/mol]     -76.70485811 [kJ/mol]
    Exchange sSAPT0                24.91924054 [mEh]      15.63705952 [kcal/mol]      65.42545702 [kJ/mol]
    Induction sSAPT0              -12.14211701 [mEh]      -7.61929345 [kcal/mol]     -31.87912381 [kJ/mol]
    Dispersion sSAPT0              -6.52115532 [mEh]      -4.09208674 [kcal/mol]     -17.12129092 [kJ/mol]
  Total sSAPT0                    -22.95936931 [mEh]     -14.40722175 [kcal/mol]     -60.27981581 [kJ/mol]
  --------------------------------------------------------------------------------------------------------

*** Psi4 exiting successfully. Buy a developer a beer!
