                               Psi4 1.9 release

  ==> Input File <==

--------------------------------------------------------------------------
MEMORY 60 GB

molecule dimer {
0 1
O      0.000000     0.000000     0.000000
H     -0.544891     0.788345     0.000000
H      0.902246     0.394244     0.000000
--
-1 1
Br     3.212066     0.000000     0.000000

units ang
no_reorient
no_com
symmetry c1
}

set {
basis        aug-cc-pVTZ
scf_type     df
}

energy("sapt2+")
--------------------------------------------------------------------------

  //              Dimer HF             //
    Molecular point group: c1
  Charge       = -1
  Multiplicity = 1
  Basis Set: AUG-CC-PVTZ
    Blend: AUG-CC-PVTZ
  Basis Set: (AUG-CC-PVTZ AUX)
    Blend: AUG-CC-PVTZ-JKFIT
  @DF-RHF Final Energy: -2648.60100458082388
    Total Energy =                      -2648.6010045808238829
 Dipole X            :       -218.5427127          213.1226794           -5.4200333
 Dipole Y            :         -1.6019889            2.2347693            0.6327805
 Dipole Z            :          0.0000000            0.0000000            0.0000000
 Magnitude           :                                                    5.4568464
  //            Monomer A HF           //
    Molecular point group: c1
  Multiplicity = 1
  Basis Set: AUG-CC-PVTZ
    Blend: AUG-CC-PVTZ
  Basis Set: (AUG-CC-PVTZ AUX)
    Blend: AUG-CC-PVTZ-JKFIT
  @DF-RHF Final Energy:   -76.05854382425865
    Total Energy =                        -76.0585438242586349
  //            Monomer B HF           //
    Molecular point group: c1

    Geometry (in Angstrom), charge = -1, multiplicity = 1:

       Center              X                  Y                   Z               Mass
    ------------   -----------------  -----------------  -----------------  -----------------
      Gh(O)           0.000000000000     0.000000000000     0.000000000000    15.994914619570
      Gh(H)          -0.544891000000     0.788345000000     0.000000000000     1.007825032230
      Gh(H)           0.902246000000     0.394244000000     0.000000000000     1.007825032230
         BR           3.212066000000     0.000000000000     0.000000000000    78.918337600000

  Charge       = -1
  Multiplicity = 1
  Basis Set: AUG-CC-PVTZ
    Blend: AUG-CC-PVTZ
  Basis Set: (AUG-CC-PVTZ AUX)
    Blend: AUG-CC-PVTZ-JKFIT

    Orbital Energies [Eh]
    ---------------------

    Doubly Occupied:

       1A   -489.720857     2A    -64.860795     3A    -58.215289
       4A    -58.215289     5A    -58.215284     6A     -9.532955
       7A     -7.140311     8A     -7.140310     9A     -7.140284
      10A     -2.881985    11A     -2.881985    12A     -2.881980
      13A     -2.881978    14A     -2.881960    15A     -0.686001
      16A     -0.139343    17A     -0.139343    18A     -0.139340

  @DF-RHF Final Energy: -2572.53368316181377

   => Energetics <=

    Nuclear Repulsion Energy =              0.0000000000000000
    One-Electron Energy =               -3593.6767776853889700
    Two-Electron Energy =                1021.1430945235749732
    Total Energy =                      -2572.5336831618142241
 Dipole X            :       -218.5174683          212.4473763           -6.0700920
 Dipole Y            :          0.0000159            0.0000000            0.0000159
 Dipole Z            :          0.0000000            0.0000000            0.0000000
 Magnitude           :                                                    6.0700920

    SAPT Results
  --------------------------------------------------------------------------------------------------------
    Electrostatics                -20.48798495 [mEh]     -12.85640465 [kcal/mol]     -53.79119707 [kJ/mol]
      Elst10,r                    -19.91515365 [mEh]     -12.49694759 [kcal/mol]     -52.28722870 [kJ/mol]
      Elst12,r                     -0.57283130 [mEh]      -0.35945707 [kcal/mol]      -1.50396836 [kJ/mol]

    Exchange                       21.91528046 [mEh]      13.75204611 [kcal/mol]      57.53856091 [kJ/mol]
      Exch10                       20.04524529 [mEh]      12.57858133 [kcal/mol]      52.62878427 [kJ/mol]
      Exch10(S^2)                  19.78370601 [mEh]      12.41446295 [kcal/mol]      51.94211297 [kJ/mol]
      Exch11(S^2)                   0.62329508 [mEh]       0.39112357 [kcal/mol]       1.63646100 [kJ/mol]
      Exch12(S^2)                   1.24674009 [mEh]       0.78234122 [kcal/mol]       3.27331564 [kJ/mol]

    Induction                      -9.47571382 [mEh]      -5.94610019 [kcal/mol]     -24.87848320 [kJ/mol]
      Ind20,r                     -17.25784378 [mEh]     -10.82946047 [kcal/mol]     -45.31046260 [kJ/mol]
      Ind22                        -1.77510761 [mEh]      -1.11389685 [kcal/mol]      -4.66054440 [kJ/mol]
      Exch-Ind20,r                 11.73540198 [mEh]       7.36407592 [kcal/mol]      30.81129366 [kJ/mol]
      Exch-Ind22                    1.20708019 [mEh]       0.75745426 [kcal/mol]       3.16918861 [kJ/mol]
      delta HF,r (2)               -3.38524460 [mEh]      -2.12427306 [kcal/mol]      -8.88795846 [kJ/mol]

    Dispersion                     -6.60200218 [mEh]      -4.14281891 [kcal/mol]     -17.33355433 [kJ/mol]
      Disp20                       -7.84835783 [mEh]      -4.92491889 [kcal/mol]     -20.60586065 [kJ/mol]
      Disp21                        0.54226062 [mEh]       0.34027368 [kcal/mol]       1.42370507 [kJ/mol]
      Disp22 (SDQ)                  0.06997095 [mEh]       0.04390744 [kcal/mol]       0.18370871 [kJ/mol]
      Disp22 (T)                   -1.15879763 [mEh]      -0.72715649 [kcal/mol]      -3.04242275 [kJ/mol]
      Est. Disp22 (T)              -1.33321658 [mEh]      -0.83660603 [kcal/mol]      -3.50035964 [kJ/mol]
      Exch-Disp20                   1.96734065 [mEh]       1.23452490 [kcal/mol]       5.16525217 [kJ/mol]

  Total HF                         -8.77759475 [mEh]      -5.50802386 [kcal/mol]     -23.04557184 [kJ/mol]
  Total SAPT0                     -14.65861193 [mEh]      -9.19841786 [kcal/mol]     -38.48618032 [kJ/mol]
  Total SAPT2                     -13.92943549 [mEh]      -8.74085273 [kcal/mol]     -36.57172783 [kJ/mol]
  Total SAPT2+                    -14.65042048 [mEh]      -9.19327765 [kcal/mol]     -38.46467368 [kJ/mol]

  Special recipe for scaled SAPT0 (see Manual):
    Electrostatics sSAPT0         -19.91515365 [mEh]     -12.49694759 [kcal/mol]     -52.28722870 [kJ/mol]
    Exchange sSAPT0                20.04524529 [mEh]      12.57858133 [kcal/mol]      52.62878427 [kJ/mol]
    Induction sSAPT0               -8.43608270 [mEh]      -5.29372182 [kcal/mol]     -22.14893208 [kJ/mol]
    Dispersion sSAPT0              -5.80195682 [mEh]      -3.64078287 [kcal/mol]     -15.23303552 [kJ/mol]
  Total sSAPT0                    -14.10794787 [mEh]      -8.85287095 [kcal/mol]     -37.04041203 [kJ/mol]
  --------------------------------------------------------------------------------------------------------

*** Psi4 exiting successfully. Buy a developer a beer!
