                               Psi4 1.9 release

  ==> Input File <==

--------------------------------------------------------------------------
MEMORY 60 GB

molecule dimer {
0 1
O      0.000000     0.000000     0.000000
H     -0.077717     0.955172     0.000000
H      0.978490    -0.109698     0.000000
--
-1 1
Br     3.212066     0.000000     0.000000

units ang
no_reorient
no_com
symmetry c1
}

set {
basis        aug-cc-pVTZ
scf_type     df
}

energy("sapt2+")
--------------------------------------------------------------------------

  //              Dimer HF             //
    Molecular point group: c1
  Charge       = -1
  Multiplicity = 1
  Basis Set: AUG-CC-PVTZ
    Blend: AUG-CC-PVTZ
  Basis Set: (AUG-CC-PVTZ AUX)
    Blend: AUG-CC-PVTZ-JKFIT
  @DF-RHF Final Energy: -2648.60738345139407
    Total Energy =                      -2648.6073834513936163
 Dipole X            :       -219.1115640          214.1495906           -4.9619734
 Dipole Y            :         -1.1011562            1.5977143            0.4965581
 Dipole Z            :         -0.0000000            0.0000000           -0.0000000
 Magnitude           :                                                    4.9867575
  //            Monomer A HF           //
    Molecular point group: c1
  Multiplicity = 1
  Basis Set: AUG-CC-PVTZ
    Blend: AUG-CC-PVTZ
  Basis Set: (AUG-CC-PVTZ AUX)
    Blend: AUG-CC-PVTZ-JKFIT
  @DF-RHF Final Energy:   -76.05855096719705
    Total Energy =                        -76.0585509671970499
  //            Monomer B HF           //
    Molecular point group: c1

    Geometry (in Angstrom), charge = -1, multiplicity = 1:

       Center              X                  Y                   Z               Mass
    ------------   -----------------  -----------------  -----------------  -----------------
      Gh(O)           0.000000000000     0.000000000000     0.000000000000    15.994914619570
      Gh(H)          -0.077717000000     0.955172000000     0.000000000000     1.007825032230
      Gh(H)           0.978490000000    -0.109698000000     0.000000000000     1.007825032230
         BR           3.212066000000     0.000000000000     0.000000000000    78.918337600000

  Charge       = -1
  Multiplicity = 1
  Basis Set: AUG-CC-PVTZ
    Blend: AUG-CC-PVTZ
  Basis Set: (AUG-CC-PVTZ AUX)
    Blend: AUG-CC-PVTZ-JKFIT

    Orbital Energies [Eh]
    ---------------------

    Doubly Occupied:

       1A   -489.720896     2A    -64.860824     3A    -58.215318
       4A    -58.215318     5A    -58.215314     6A     -9.532966
       7A     -7.140320     8A     -7.140319     9A     -7.140294
      10A     -2.881996    11A     -2.881995    12A     -2.881989
      13A     -2.881987    14A     -2.881974    15A     -0.686000
      16A     -0.139342    17A     -0.139342    18A     -0.139338

  @DF-RHF Final Energy: -2572.53368400541012

   => Energetics <=

    Nuclear Repulsion Energy =              0.0000000000000000
    One-Electron Energy =               -3593.6763012699625506
    Two-Electron Energy =                1021.1426172645526549
    Total Energy =                      -2572.5336840054096683
 Dipole X            :       -218.5174076          212.4473763           -6.0700313
 Dipole Y            :         -0.0002006            0.0000000           -0.0002006
 Dipole Z            :          0.0000000            0.0000000            0.0000000
 Magnitude           :                                                    6.0700313

    SAPT Results
  --------------------------------------------------------------------------------------------------------
    Electrostatics                -29.16838976 [mEh]     -18.30344091 [kcal/mol]     -76.58159676 [kJ/mol]
      Elst10,r                    -28.95846586 [mEh]     -18.17171168 [kcal/mol]     -76.03044165 [kJ/mol]
      Elst12,r                     -0.20992389 [mEh]      -0.13172923 [kcal/mol]      -0.55115511 [kJ/mol]

    Exchange                       27.45362774 [mEh]      17.22741149 [kcal/mol]      72.07948969 [kJ/mol]
      Exch10                       24.91325696 [mEh]      15.63330477 [kcal/mol]      65.40974714 [kJ/mol]
      Exch10(S^2)                  24.49382801 [mEh]      15.37010913 [kcal/mol]      64.30853659 [kJ/mol]
      Exch11(S^2)                   0.96850401 [mEh]       0.60774544 [kcal/mol]       2.54280693 [kJ/mol]
      Exch12(S^2)                   1.57186676 [mEh]       0.98636128 [kcal/mol]       4.12693561 [kJ/mol]

    Induction                     -11.91475429 [mEh]      -7.47662120 [kcal/mol]     -31.28218309 [kJ/mol]
      Ind20,r                     -21.23605301 [mEh]     -13.32582445 [kcal/mol]     -55.75524950 [kJ/mol]
      Ind22                        -2.55478859 [mEh]      -1.60315404 [kcal/mol]      -6.70759651 [kJ/mol]
      Exch-Ind20,r                 14.49078804 [mEh]       9.09310678 [kcal/mol]      38.04555876 [kJ/mol]
      Exch-Ind22                    1.74330418 [mEh]       1.09393989 [kcal/mol]       4.57704449 [kJ/mol]
      delta HF,r (2)               -4.35800492 [mEh]      -2.73468937 [kcal/mol]     -11.44194033 [kJ/mol]

    Dispersion                     -7.75462096 [mEh]      -4.86609812 [kcal/mol]     -20.35975454 [kJ/mol]
      Disp20                       -9.10700013 [mEh]      -5.71472886 [kcal/mol]     -23.91042554 [kJ/mol]
      Disp21                        0.58265442 [mEh]       0.36562117 [kcal/mol]       1.52975896 [kJ/mol]
      Disp22 (SDQ)                  0.03955002 [mEh]       0.02481801 [kcal/mol]       0.10383856 [kJ/mol]
      Disp22 (T)                   -1.37162258 [mEh]      -0.86070616 [kcal/mol]      -3.60119458 [kJ/mol]
      Est. Disp22 (T)              -1.56970434 [mEh]      -0.98500434 [kcal/mol]      -4.12125818 [kJ/mol]
      Exch-Disp20                   2.29987907 [mEh]       1.44319590 [kcal/mol]       6.03833167 [kJ/mol]

  Total HF                        -15.14847879 [mEh]      -9.50581395 [kcal/mol]     -39.77232558 [kJ/mol]
  Total SAPT0                     -21.95559985 [mEh]     -13.77734691 [kcal/mol]     -57.64441945 [kJ/mol]
  Total SAPT2                     -20.43663738 [mEh]     -12.82418357 [kcal/mol]     -53.65638404 [kJ/mol]
  Total SAPT2+                    -21.38413728 [mEh]     -13.41874873 [kcal/mol]     -56.14404470 [kJ/mol]

  Special recipe for scaled SAPT0 (see Manual):
    Electrostatics sSAPT0         -28.95846586 [mEh]     -18.17171168 [kcal/mol]     -76.03044165 [kJ/mol]
    Exchange sSAPT0                24.91325696 [mEh]      15.63330477 [kcal/mol]      65.40974714 [kJ/mol]
    Induction sSAPT0              -10.34603507 [mEh]      -6.49223502 [kcal/mol]     -27.16351133 [kJ/mol]
    Dispersion sSAPT0              -6.68693791 [mEh]      -4.19611689 [kcal/mol]     -17.55655307 [kJ/mol]
  Total sSAPT0                    -21.07818189 [mEh]     -13.22675882 [kcal/mol]     -55.34075892 [kJ/mol]
  --------------------------------------------------------------------------------------------------------

*** Psi4 exiting successfully. Buy a developer a beer!
