                               Psi4 1.9 release

  ==> Input File <==

--------------------------------------------------------------------------
MEMORY 60 GB

molecule dimer {
0 1
O      0.000000     0.000000     0.000000
H      0.788345     0.544891     0.000000
H      0.394244    -0.902246     0.000000
--
-1 1
Br     3.212066     0.000000     0.000000

units ang
no_reorient
no_com
symmetry c1
}

set {
basis        aug-cc-pVTZ
scf_type     df
}

energy("sapt2+")
--------------------------------------------------------------------------

  //              Dimer HF             //
    Molecular point group: c1
  Charge       = -1
  Multiplicity = 1
  Basis Set: AUG-CC-PVTZ
    Blend: AUG-CC-PVTZ
  Basis Set: (AUG-CC-PVTZ AUX)
    Blend: AUG-CC-PVTZ-JKFIT
  @DF-RHF Final Energy: -2648.60655291031071
    Total Energy =                      -2648.6065529103107110
 Dipole X            :       -219.5895063          214.6821456           -4.9073607
 Dipole Y            :          0.4518348           -0.6753031           -0.2234682
 Dipole Z            :         -0.0000000            0.0000000           -0.0000000
 Magnitude           :                                                    4.9124461
  //            Monomer A HF           //
    Molecular point group: c1
  Multiplicity = 1
  Basis Set: AUG-CC-PVTZ
    Blend: AUG-CC-PVTZ
  Basis Set: (AUG-CC-PVTZ AUX)
    Blend: AUG-CC-PVTZ-JKFIT
  @DF-RHF Final Energy:   -76.05854244052558
    Total Energy =                        -76.0585424405255992
  //            Monomer B HF           //
    Molecular point group: c1

    Geometry (in Angstrom), charge = -1, multiplicity = 1:

       Center              X                  Y                   Z               Mass
    ------------   -----------------  -----------------  -----------------  -----------------
      Gh(O)           0.000000000000     0.000000000000     0.000000000000    15.994914619570
      Gh(H)           0.788345000000     0.544891000000     0.000000000000     1.007825032230
      Gh(H)           0.394244000000    -0.902246000000     0.000000000000     1.007825032230
         BR           3.212066000000     0.000000000000     0.000000000000    78.918337600000

  Charge       = -1
  Multiplicity = 1
  Basis Set: AUG-CC-PVTZ
    Blend: AUG-CC-PVTZ
  Basis Set: (AUG-CC-PVTZ AUX)
    Blend: AUG-CC-PVTZ-JKFIT

    Orbital Energies [Eh]
    ---------------------

    Doubly Occupied:

       1A   -489.720728     2A    -64.860712     3A    -58.215197
       4A    -58.215197     5A    -58.215193     6A     -9.532932
       7A     -7.140282     8A     -7.140280     9A     -7.140261
      10A     -2.881954    11A     -2.881954    12A     -2.881951
      13A     -2.881946    14A     -2.881931    15A     -0.685998
      16A     -0.139339    17A     -0.139338    18A     -0.139336

  @DF-RHF Final Energy: -2572.53368083420810

   => Energetics <=

    Nuclear Repulsion Energy =              0.0000000000000000
    One-Electron Energy =               -3593.6783050237781936
    Two-Electron Energy =                1021.1446241895700950
    Total Energy =                      -2572.5336808342080985
 Dipole X            :       -218.5174468          212.4473763           -6.0700705
 Dipole Y            :          0.0000544            0.0000000            0.0000544
 Dipole Z            :          0.0000000            0.0000000            0.0000000
 Magnitude           :                                                    6.0700705

    SAPT Results
  --------------------------------------------------------------------------------------------------------
    Electrostatics                -28.03065938 [mEh]     -17.58950432 [kcal/mol]     -73.59448607 [kJ/mol]
      Elst10,r                    -28.02856233 [mEh]     -17.58818840 [kcal/mol]     -73.58898026 [kJ/mol]
      Elst12,r                     -0.00209705 [mEh]      -0.00131592 [kcal/mol]      -0.00550581 [kJ/mol]

    Exchange                       22.12826985 [mEh]      13.88569897 [kcal/mol]      58.09776449 [kJ/mol]
      Exch10                       19.83751002 [mEh]      12.44822547 [kcal/mol]      52.08337537 [kJ/mol]
      Exch10(S^2)                  19.60097681 [mEh]      12.29979864 [kcal/mol]      51.46235752 [kJ/mol]
      Exch11(S^2)                   0.78844192 [mEh]       0.49475477 [kcal/mol]       2.07005397 [kJ/mol]
      Exch12(S^2)                   1.50231792 [mEh]       0.94271873 [kcal/mol]       3.94433515 [kJ/mol]

    Induction                      -6.73978143 [mEh]      -4.22927670 [kcal/mol]     -17.69529370 [kJ/mol]
      Ind20,r                     -17.30509710 [mEh]     -10.85911238 [kcal/mol]     -45.43452619 [kJ/mol]
      Ind22                        -2.43980356 [mEh]      -1.53099985 [kcal/mol]      -6.40570337 [kJ/mol]
      Exch-Ind20,r                 13.04090439 [mEh]       8.18329105 [kcal/mol]      34.23888975 [kJ/mol]
      Exch-Ind22                    1.83860540 [mEh]       1.15374231 [kcal/mol]       4.82725781 [kJ/mol]
      delta HF,r (2)               -1.87439055 [mEh]      -1.17619782 [kcal/mol]      -4.92121170 [kJ/mol]

    Dispersion                     -6.93171604 [mEh]      -4.34971749 [kcal/mol]     -18.19921796 [kJ/mol]
      Disp20                       -8.08696968 [mEh]      -5.07465009 [kcal/mol]     -21.23233596 [kJ/mol]
      Disp21                        0.49700900 [mEh]       0.31187786 [kcal/mol]       1.30489695 [kJ/mol]
      Disp22 (SDQ)                 -0.04105171 [mEh]      -0.02576034 [kcal/mol]      -0.10778126 [kJ/mol]
      Disp22 (T)                   -1.24748383 [mEh]      -0.78280792 [kcal/mol]      -3.27526834 [kJ/mol]
      Est. Disp22 (T)              -1.43104839 [mEh]      -0.89799642 [kcal/mol]      -3.75721703 [kJ/mol]
      Exch-Disp20                   2.13034474 [mEh]       1.33681151 [kcal/mol]       5.59321935 [kJ/mol]

  Total HF                        -14.32963558 [mEh]      -8.99198208 [kcal/mol]     -37.62245302 [kJ/mol]
  Total SAPT0                     -20.28626051 [mEh]     -12.72982066 [kcal/mol]     -53.26156964 [kJ/mol]
  Total SAPT2                     -18.59879589 [mEh]     -11.67092062 [kcal/mol]     -48.83113189 [kJ/mol]
  Total SAPT2+                    -19.57388700 [mEh]     -12.28279953 [kcal/mol]     -51.39123323 [kJ/mol]

  Special recipe for scaled SAPT0 (see Manual):
    Electrostatics sSAPT0         -28.02856233 [mEh]     -17.58818840 [kcal/mol]     -73.58898026 [kJ/mol]
    Exchange sSAPT0                19.83751002 [mEh]      12.44822547 [kcal/mol]      52.08337537 [kJ/mol]
    Induction sSAPT0               -5.66075301 [mEh]      -3.55217614 [kcal/mol]     -14.86230497 [kJ/mol]
    Dispersion sSAPT0              -5.87856722 [mEh]      -3.68885662 [kcal/mol]     -15.43417611 [kJ/mol]
  Total sSAPT0                    -19.73037254 [mEh]     -12.38099569 [kcal/mol]     -51.80208597 [kJ/mol]
  --------------------------------------------------------------------------------------------------------

*** Psi4 exiting successfully. Buy a developer a beer!
