                               Psi4 1.9 release

  ==> Input File <==

--------------------------------------------------------------------------
MEMORY 60 GB

molecule dimer {
0 1
O      0.000000     0.000000     0.000000
H     -0.730363     0.620454     0.000000
H      0.769465     0.614329     0.000000
--
-1 1
Br     3.212066     0.000000     0.000000

units ang
no_reorient
no_com
symmetry c1
}

set {
basis        aug-cc-pVTZ
scf_type     df
}

energy("sapt2+")
--------------------------------------------------------------------------

  //              Dimer HF             //
    Molecular point group: c1
  Charge       = -1
  Multiplicity = 1
  Basis Set: AUG-CC-PVTZ
    Blend: AUG-CC-PVTZ
  Basis Set: (AUG-CC-PVTZ AUX)
    Blend: AUG-CC-PVTZ-JKFIT
  @DF-RHF Final Energy: -2648.59523842210911
    Total Energy =                      -2648.5952384221086504
 Dipole X            :       -218.2711318          212.5212684           -5.7498634
 Dipole Y            :         -1.6832634            2.3334017            0.6501383
 Dipole Z            :          0.0000000            0.0000000            0.0000000
 Magnitude           :                                                    5.7865023
  //            Monomer A HF           //
    Molecular point group: c1
  Multiplicity = 1
  Basis Set: AUG-CC-PVTZ
    Blend: AUG-CC-PVTZ
  Basis Set: (AUG-CC-PVTZ AUX)
    Blend: AUG-CC-PVTZ-JKFIT
  @DF-RHF Final Energy:   -76.05853886786525
    Total Energy =                        -76.0585388678652521
  //            Monomer B HF           //
    Molecular point group: c1

    Geometry (in Angstrom), charge = -1, multiplicity = 1:

       Center              X                  Y                   Z               Mass
    ------------   -----------------  -----------------  -----------------  -----------------
      Gh(O)           0.000000000000     0.000000000000     0.000000000000    15.994914619570
      Gh(H)          -0.730363000000     0.620454000000     0.000000000000     1.007825032230
      Gh(H)           0.769465000000     0.614329000000     0.000000000000     1.007825032230
         BR           3.212066000000     0.000000000000     0.000000000000    78.918337600000

  Charge       = -1
  Multiplicity = 1
  Basis Set: AUG-CC-PVTZ
    Blend: AUG-CC-PVTZ
  Basis Set: (AUG-CC-PVTZ AUX)
    Blend: AUG-CC-PVTZ-JKFIT

    Orbital Energies [Eh]
    ---------------------

    Doubly Occupied:

       1A   -489.720713     2A    -64.860700     3A    -58.215186
       4A    -58.215186     5A    -58.215182     6A     -9.532927
       7A     -7.140279     8A     -7.140278     9A     -7.140259
      10A     -2.881950    11A     -2.881950    12A     -2.881947
      13A     -2.881945    14A     -2.881927    15A     -0.685999
      16A     -0.139340    17A     -0.139340    18A     -0.139338

  @DF-RHF Final Energy: -2572.53368029928652

   => Energetics <=

    Nuclear Repulsion Energy =              0.0000000000000000
    One-Electron Energy =               -3593.6784676764759752
    Two-Electron Energy =                1021.1447873771895729
    Total Energy =                      -2572.5336802992865159
 Dipole X            :       -218.5173503          212.4473763           -6.0699740
 Dipole Y            :          0.0001044            0.0000000            0.0001044
 Dipole Z            :         -0.0000000            0.0000000           -0.0000000
 Magnitude           :                                                    6.0699740

    SAPT Results
  --------------------------------------------------------------------------------------------------------
    Electrostatics                -13.23164548 [mEh]      -8.30298289 [kcal/mol]     -34.73968043 [kJ/mol]
      Elst10,r                    -12.34296805 [mEh]      -7.74532938 [kcal/mol]     -32.40645814 [kJ/mol]
      Elst12,r                     -0.88867744 [mEh]      -0.55765351 [kcal/mol]      -2.33322229 [kJ/mol]

    Exchange                       17.06630224 [mEh]      10.70926634 [kcal/mol]      44.80757036 [kJ/mol]
      Exch10                       15.58745362 [mEh]       9.78127482 [kcal/mol]      40.92485385 [kJ/mol]
      Exch10(S^2)                  15.43920724 [mEh]       9.68824881 [kcal/mol]      40.53563302 [kJ/mol]
      Exch11(S^2)                   0.37191174 [mEh]       0.23337814 [kcal/mol]       0.97645414 [kJ/mol]
      Exch12(S^2)                   1.10693688 [mEh]       0.69461338 [kcal/mol]       2.90626237 [kJ/mol]

    Induction                      -6.68692112 [mEh]      -4.19610635 [kcal/mol]     -17.55650897 [kJ/mol]
      Ind20,r                     -13.92608150 [mEh]      -8.73874807 [kcal/mol]     -36.56292194 [kJ/mol]
      Ind22                        -1.43556079 [mEh]      -0.90082799 [kcal/mol]      -3.76906433 [kJ/mol]
      Exch-Ind20,r                  9.82089325 [mEh]       6.16270356 [kcal/mol]      25.78475168 [kJ/mol]
      Exch-Ind22                    1.01238020 [mEh]       0.63527817 [kcal/mol]       2.65800386 [kJ/mol]
      delta HF,r (2)               -2.15855228 [mEh]      -1.35451201 [kcal/mol]      -5.66727824 [kJ/mol]

    Dispersion                     -5.60690528 [mEh]      -3.51838618 [kcal/mol]     -14.72092780 [kJ/mol]
      Disp20                       -6.71906482 [mEh]      -4.21627683 [kcal/mol]     -17.64090225 [kJ/mol]
      Disp21                        0.51259431 [mEh]       0.32165778 [kcal/mol]       1.34581616 [kJ/mol]
      Disp22 (SDQ)                  0.04586255 [mEh]       0.02877919 [kcal/mol]       0.12041211 [kJ/mol]
      Disp22 (T)                   -0.99037883 [mEh]      -0.62147210 [kcal/mol]      -2.60023926 [kJ/mol]
      Est. Disp22 (T)              -1.14121309 [mEh]      -0.71612202 [kcal/mol]      -2.99625455 [kJ/mol]
      Exch-Disp20                   1.69491576 [mEh]       1.06357570 [kcal/mol]       4.45000073 [kJ/mol]

  Total HF                         -3.01925496 [mEh]      -1.89461109 [kcal/mol]      -7.92705280 [kJ/mol]
  Total SAPT0                      -8.04340401 [mEh]      -5.04731222 [kcal/mol]     -21.11795432 [kJ/mol]
  Total SAPT2                      -7.87641341 [mEh]      -4.94252404 [kcal/mol]     -20.67952056 [kJ/mol]
  Total SAPT2+                     -8.45916964 [mEh]      -5.30820909 [kcal/mol]     -22.20954684 [kJ/mol]

  Special recipe for scaled SAPT0 (see Manual):
    Electrostatics sSAPT0         -12.34296805 [mEh]      -7.74532938 [kcal/mol]     -32.40645814 [kJ/mol]
    Exchange sSAPT0                15.58745362 [mEh]       9.78127482 [kcal/mol]      40.92485385 [kJ/mol]
    Induction sSAPT0               -5.97811649 [mEh]      -3.75132474 [kcal/mol]     -15.69554269 [kJ/mol]
    Dispersion sSAPT0              -4.97485530 [mEh]      -3.12176883 [kcal/mol]     -13.06148079 [kJ/mol]
  Total sSAPT0                     -7.70848622 [mEh]      -4.83714813 [kcal/mol]     -20.23862777 [kJ/mol]
  --------------------------------------------------------------------------------------------------------

*** Psi4 exiting successfully. Buy a developer a beer!
