                               Psi4 1.9 release

  ==> Input File <==

--------------------------------------------------------------------------
MEMORY 60 GB

molecule dimer {
0 1
O      0.000000     0.000000     0.000000
H      0.410281     0.866062     0.000000
H      0.792548    -0.584246     0.000000
--
-1 1
Br     3.212066     0.000000     0.000000

units ang
no_reorient
no_com
symmetry c1
}

set {
basis        aug-cc-pVTZ
scf_type     df
}

energy("sapt2+")
--------------------------------------------------------------------------

  //              Dimer HF             //
    Molecular point group: c1
  Charge       = -1
  Multiplicity = 1
  Basis Set: AUG-CC-PVTZ
    Blend: AUG-CC-PVTZ
  Basis Set: (AUG-CC-PVTZ AUX)
    Blend: AUG-CC-PVTZ-JKFIT
  @DF-RHF Final Energy: -2648.60683079932051
    Total Energy =                      -2648.6068307993209601
 Dipole X            :       -219.6061024          214.7203937           -4.8857088
 Dipole Y            :         -0.3460254            0.5325551            0.1865296
 Dipole Z            :          0.0000000            0.0000000            0.0000000
 Magnitude           :                                                    4.8892682
  //            Monomer A HF           //
    Molecular point group: c1
  Multiplicity = 1
  Basis Set: AUG-CC-PVTZ
    Blend: AUG-CC-PVTZ
  Basis Set: (AUG-CC-PVTZ AUX)
    Blend: AUG-CC-PVTZ-JKFIT
  @DF-RHF Final Energy:   -76.05854111752809
    Total Energy =                        -76.0585411175280939
  //            Monomer B HF           //
    Molecular point group: c1

    Geometry (in Angstrom), charge = -1, multiplicity = 1:

       Center              X                  Y                   Z               Mass
    ------------   -----------------  -----------------  -----------------  -----------------
      Gh(O)           0.000000000000     0.000000000000     0.000000000000    15.994914619570
      Gh(H)           0.410281000000     0.866062000000     0.000000000000     1.007825032230
      Gh(H)           0.792548000000    -0.584246000000     0.000000000000     1.007825032230
         BR           3.212066000000     0.000000000000     0.000000000000    78.918337600000

  Charge       = -1
  Multiplicity = 1
  Basis Set: AUG-CC-PVTZ
    Blend: AUG-CC-PVTZ
  Basis Set: (AUG-CC-PVTZ AUX)
    Blend: AUG-CC-PVTZ-JKFIT

    Orbital Energies [Eh]
    ---------------------

    Doubly Occupied:

       1A   -489.720720     2A    -64.860707     3A    -58.215192
       4A    -58.215192     5A    -58.215188     6A     -9.532931
       7A     -7.140281     8A     -7.140278     9A     -7.140260
      10A     -2.881953    11A     -2.881952    12A     -2.881950
      13A     -2.881944    14A     -2.881929    15A     -0.685998
      16A     -0.139339    17A     -0.139338    18A     -0.139336

  @DF-RHF Final Energy: -2572.53368078192443

   => Energetics <=

    Nuclear Repulsion Energy =              0.0000000000000000
    One-Electron Energy =               -3593.6783873327717629
    Two-Electron Energy =                1021.1447065508475589
    Total Energy =                      -2572.5336807819239766
 Dipole X            :       -218.5174492          212.4473763           -6.0700729
 Dipole Y            :         -0.0000493            0.0000000           -0.0000493
 Dipole Z            :          0.0000000            0.0000000            0.0000000
 Magnitude           :                                                    6.0700729

    SAPT Results
  --------------------------------------------------------------------------------------------------------
    Electrostatics                -28.44759188 [mEh]     -17.85113341 [kcal/mol]     -74.68914218 [kJ/mol]
      Elst10,r                    -28.44199820 [mEh]     -17.84762333 [kcal/mol]     -74.67445600 [kJ/mol]
      Elst12,r                     -0.00559367 [mEh]      -0.00351008 [kcal/mol]      -0.01468618 [kJ/mol]

    Exchange                       22.50309685 [mEh]      14.12090646 [kcal/mol]      59.08187264 [kJ/mol]
      Exch10                       20.16953302 [mEh]      12.65657305 [kcal/mol]      52.95510165 [kJ/mol]
      Exch10(S^2)                  19.92178510 [mEh]      12.50110888 [kcal/mol]      52.30463956 [kJ/mol]
      Exch11(S^2)                   0.83479001 [mEh]       0.52383864 [kcal/mol]       2.19174088 [kJ/mol]
      Exch12(S^2)                   1.49877381 [mEh]       0.94049477 [kcal/mol]       3.93503011 [kJ/mol]

    Induction                      -6.95298883 [mEh]      -4.36306636 [kcal/mol]     -18.25506965 [kJ/mol]
      Ind20,r                     -17.56405843 [mEh]     -11.02161306 [kcal/mol]     -46.11442904 [kJ/mol]
      Ind22                        -2.47427880 [mEh]      -1.55263339 [kcal/mol]      -6.49621810 [kJ/mol]
      Exch-Ind20,r                 13.18735159 [mEh]       8.27518806 [kcal/mol]      34.62338684 [kJ/mol]
      Exch-Ind22                    1.85772466 [mEh]       1.16573983 [kcal/mol]       4.87745543 [kJ/mol]
      delta HF,r (2)               -1.95972785 [mEh]      -1.22974779 [kcal/mol]      -5.14526477 [kJ/mol]

    Dispersion                     -7.02723699 [mEh]      -4.40965779 [kcal/mol]     -18.45000818 [kJ/mol]
      Disp20                       -8.19951130 [mEh]      -5.14527102 [kcal/mol]     -21.52781396 [kJ/mol]
      Disp21                        0.50584710 [mEh]       0.31742385 [kcal/mol]       1.32810138 [kJ/mol]
      Disp22 (SDQ)                 -0.03832600 [mEh]      -0.02404993 [kcal/mol]      -0.10062490 [kJ/mol]
      Disp22 (T)                   -1.26641149 [mEh]      -0.79468521 [kcal/mol]      -3.32496290 [kJ/mol]
      Est. Disp22 (T)              -1.45348691 [mEh]      -0.91207681 [kcal/mol]      -3.81612937 [kJ/mol]
      Exch-Disp20                   2.15824012 [mEh]       1.35431612 [kcal/mol]       5.66645867 [kJ/mol]

  Total HF                        -14.60889987 [mEh]      -9.16722307 [kcal/mol]     -38.35566132 [kJ/mol]
  Total SAPT0                     -20.65017105 [mEh]     -12.95817797 [kcal/mol]     -54.21701661 [kJ/mol]
  Total SAPT2                     -18.93875503 [mEh]     -11.88424820 [kcal/mol]     -49.72369448 [kJ/mol]
  Total SAPT2+                    -19.92472084 [mEh]     -12.50295109 [kcal/mol]     -52.31234737 [kJ/mol]

  Special recipe for scaled SAPT0 (see Manual):
    Electrostatics sSAPT0         -28.44199820 [mEh]     -17.84762333 [kcal/mol]     -74.67445600 [kJ/mol]
    Exchange sSAPT0                20.16953302 [mEh]      12.65657305 [kcal/mol]      52.95510165 [kJ/mol]
    Induction sSAPT0               -5.83829594 [mEh]      -3.66358601 [kcal/mol]     -15.32844388 [kJ/mol]
    Dispersion sSAPT0              -5.95974586 [mEh]      -3.73979699 [kcal/mol]     -15.64731060 [kJ/mol]
  Total sSAPT0                    -20.07050699 [mEh]     -12.59443328 [kcal/mol]     -52.69510883 [kJ/mol]
  --------------------------------------------------------------------------------------------------------

*** Psi4 exiting successfully. Buy a developer a beer!
