                               Psi4 1.9 release

  ==> Input File <==

--------------------------------------------------------------------------
MEMORY 60 GB

molecule dimer {
0 1
O      0.000000     0.000000     0.000000
H     -0.322286     0.902511     0.000000
H      0.973541     0.147292     0.000000
--
-1 1
Br     3.212066     0.000000     0.000000

units ang
no_reorient
no_com
symmetry c1
}

set {
basis        aug-cc-pVTZ
scf_type     df
}

energy("sapt2+")
--------------------------------------------------------------------------

  //              Dimer HF             //
    Molecular point group: c1
  Charge       = -1
  Multiplicity = 1
  Basis Set: AUG-CC-PVTZ
    Blend: AUG-CC-PVTZ
  Basis Set: (AUG-CC-PVTZ AUX)
    Blend: AUG-CC-PVTZ-JKFIT
  @DF-RHF Final Energy: -2648.60526911200077
    Total Energy =                      -2648.6052691120003146
 Dipole X            :       -218.8187723          213.6780699           -5.1407024
 Dipole Y            :         -1.4007831            1.9838402            0.5830571
 Dipole Z            :          0.0000000            0.0000000            0.0000000
 Magnitude           :                                                    5.1736618
  //            Monomer A HF           //
    Molecular point group: c1
  Multiplicity = 1
  Basis Set: AUG-CC-PVTZ
    Blend: AUG-CC-PVTZ
  Basis Set: (AUG-CC-PVTZ AUX)
    Blend: AUG-CC-PVTZ-JKFIT
  @DF-RHF Final Energy:   -76.05855054954056
    Total Energy =                        -76.0585505495405556
  //            Monomer B HF           //
    Molecular point group: c1

    Geometry (in Angstrom), charge = -1, multiplicity = 1:

       Center              X                  Y                   Z               Mass
    ------------   -----------------  -----------------  -----------------  -----------------
      Gh(O)           0.000000000000     0.000000000000     0.000000000000    15.994914619570
      Gh(H)          -0.322286000000     0.902511000000     0.000000000000     1.007825032230
      Gh(H)           0.973541000000     0.147292000000     0.000000000000     1.007825032230
         BR           3.212066000000     0.000000000000     0.000000000000    78.918337600000

  Charge       = -1
  Multiplicity = 1
  Basis Set: AUG-CC-PVTZ
    Blend: AUG-CC-PVTZ
  Basis Set: (AUG-CC-PVTZ AUX)
    Blend: AUG-CC-PVTZ-JKFIT

    Orbital Energies [Eh]
    ---------------------

    Doubly Occupied:

       1A   -489.720911     2A    -64.860831     3A    -58.215326
       4A    -58.215326     5A    -58.215322     6A     -9.532967
       7A     -7.140321     8A     -7.140320     9A     -7.140296
      10A     -2.881998    11A     -2.881997    12A     -2.881991
      13A     -2.881990    14A     -2.881976    15A     -0.686001
      16A     -0.139343    17A     -0.139343    18A     -0.139339

  @DF-RHF Final Energy: -2572.53368425010694

   => Energetics <=

    Nuclear Repulsion Energy =              0.0000000000000000
    One-Electron Energy =               -3593.6761684526409226
    Two-Electron Energy =                1021.1424842025339785
    Total Energy =                      -2572.5336842501069441
 Dipole X            :       -218.5173821          212.4473763           -6.0700059
 Dipole Y            :         -0.0001303            0.0000000           -0.0001303
 Dipole Z            :          0.0000000            0.0000000            0.0000000
 Magnitude           :                                                    6.0700059

    SAPT Results
  --------------------------------------------------------------------------------------------------------
    Electrostatics                -26.15216381 [mEh]     -16.41073055 [kcal/mol]     -68.66249662 [kJ/mol]
      Elst10,r                    -25.80127151 [mEh]     -16.19054231 [kcal/mol]     -67.74122902 [kJ/mol]
      Elst12,r                     -0.35089230 [mEh]      -0.22018824 [kcal/mol]      -0.92126760 [kJ/mol]

    Exchange                       26.15299648 [mEh]      16.41125306 [kcal/mol]      68.66468281 [kJ/mol]
      Exch10                       23.85660230 [mEh]      14.97024396 [kcal/mol]      62.63550071 [kJ/mol]
      Exch10(S^2)                  23.47285729 [mEh]      14.72944033 [kcal/mol]      61.62797833 [kJ/mol]
      Exch11(S^2)                   0.85575945 [mEh]       0.53699716 [kcal/mol]       2.24679613 [kJ/mol]
      Exch12(S^2)                   1.44063473 [mEh]       0.90401194 [kcal/mol]       3.78238597 [kJ/mol]

    Induction                     -11.82378774 [mEh]      -7.41953882 [kcal/mol]     -31.04335044 [kJ/mol]
      Ind20,r                     -20.28601881 [mEh]     -12.72966899 [kcal/mol]     -53.26093505 [kJ/mol]
      Ind22                        -2.22695654 [mEh]      -1.39743632 [kcal/mol]      -5.84687358 [kJ/mol]
      Exch-Ind20,r                 13.59847420 [mEh]       8.53317139 [kcal/mol]      35.70278909 [kJ/mol]
      Exch-Ind22                    1.49281193 [mEh]       0.93675363 [kcal/mol]       3.91937719 [kJ/mol]
      delta HF,r (2)               -4.40209853 [mEh]      -2.76235853 [kcal/mol]     -11.55770809 [kJ/mol]

    Dispersion                     -7.44597868 [mEh]      -4.67242217 [kcal/mol]     -19.54941434 [kJ/mol]
      Disp20                       -8.78896058 [mEh]      -5.51515603 [kcal/mol]     -23.07541283 [kJ/mol]
      Disp21                        0.57686172 [mEh]       0.36198619 [kcal/mol]       1.51455023 [kJ/mol]
      Disp22 (SDQ)                  0.06843072 [mEh]       0.04294093 [kcal/mol]       0.17966484 [kJ/mol]
      Disp22 (T)                   -1.31397727 [mEh]      -0.82453318 [kcal/mol]      -3.44984684 [kJ/mol]
      Est. Disp22 (T)              -1.50016224 [mEh]      -0.94136601 [kcal/mol]      -3.93867541 [kJ/mol]
      Exch-Disp20                   2.19785169 [mEh]       1.37917276 [kcal/mol]       5.77045882 [kJ/mol]

  Total HF                        -13.03431235 [mEh]      -8.17915449 [kcal/mol]     -34.22158237 [kJ/mol]
  Total SAPT0                     -19.62542124 [mEh]     -12.31513776 [kcal/mol]     -51.52653637 [kJ/mol]
  Total SAPT2                     -18.41406395 [mEh]     -11.55499958 [kcal/mol]     -48.34611825 [kJ/mol]
  Total SAPT2+                    -19.26893375 [mEh]     -12.09143848 [kcal/mol]     -50.59057859 [kJ/mol]

  Special recipe for scaled SAPT0 (see Manual):
    Electrostatics sSAPT0         -25.80127151 [mEh]     -16.19054231 [kcal/mol]     -67.74122902 [kJ/mol]
    Exchange sSAPT0                23.85660230 [mEh]      14.97024396 [kcal/mol]      62.63550071 [kJ/mol]
    Induction sSAPT0              -10.41173802 [mEh]      -6.53346424 [kcal/mol]     -27.33601440 [kJ/mol]
    Dispersion sSAPT0              -6.48154256 [mEh]      -4.06722936 [kcal/mol]     -17.01728764 [kJ/mol]
  Total sSAPT0                    -18.83794979 [mEh]     -11.82099196 [kcal/mol]     -49.45903035 [kJ/mol]
  --------------------------------------------------------------------------------------------------------

*** Psi4 exiting successfully. Buy a developer a beer!
