                               Psi4 1.9 release

  ==> Input File <==

--------------------------------------------------------------------------
MEMORY 60 GB

molecule dimer {
0 1
O      0.000000     0.000000     0.000000
H      0.172148     0.942740     0.000000
H      0.916757    -0.359212     0.000000
--
-1 1
Br     3.212066     0.000000     0.000000

units ang
no_reorient
no_com
symmetry c1
}

set {
basis        aug-cc-pVTZ
scf_type     df
}

energy("sapt2+")
--------------------------------------------------------------------------

  //              Dimer HF             //
    Molecular point group: c1
  Charge       = -1
  Multiplicity = 1
  Basis Set: AUG-CC-PVTZ
    Blend: AUG-CC-PVTZ
  Basis Set: (AUG-CC-PVTZ AUX)
    Blend: AUG-CC-PVTZ-JKFIT
  @DF-RHF Final Energy: -2648.60757359838317
    Total Energy =                      -2648.6075735983831692
 Dipole X            :       -219.3954033          214.5051085           -4.8902948
 Dipole Y            :         -0.7380348            1.1027081            0.3646733
 Dipole Z            :          0.0000000            0.0000000            0.0000000
 Magnitude           :                                                    4.9038729
  //            Monomer A HF           //
    Molecular point group: c1
  Multiplicity = 1
  Basis Set: AUG-CC-PVTZ
    Blend: AUG-CC-PVTZ
  Basis Set: (AUG-CC-PVTZ AUX)
    Blend: AUG-CC-PVTZ-JKFIT
  @DF-RHF Final Energy:   -76.05854645271953
    Total Energy =                        -76.0585464527195256
  //            Monomer B HF           //
    Molecular point group: c1

    Geometry (in Angstrom), charge = -1, multiplicity = 1:

       Center              X                  Y                   Z               Mass
    ------------   -----------------  -----------------  -----------------  -----------------
      Gh(O)           0.000000000000     0.000000000000     0.000000000000    15.994914619570
      Gh(H)           0.172148000000     0.942740000000     0.000000000000     1.007825032230
      Gh(H)           0.916757000000    -0.359212000000     0.000000000000     1.007825032230
         BR           3.212066000000     0.000000000000     0.000000000000    78.918337600000

  Charge       = -1
  Multiplicity = 1
  Basis Set: AUG-CC-PVTZ
    Blend: AUG-CC-PVTZ
  Basis Set: (AUG-CC-PVTZ AUX)
    Blend: AUG-CC-PVTZ-JKFIT

    Orbital Energies [Eh]
    ---------------------

    Doubly Occupied:

       1A   -489.720824     2A    -64.860776     3A    -58.215266
       4A    -58.215266     5A    -58.215262     6A     -9.532952
       7A     -7.140303     8A     -7.140302     9A     -7.140277
      10A     -2.881977    11A     -2.881976    12A     -2.881972
      13A     -2.881970    14A     -2.881955    15A     -0.685999
      16A     -0.139340    17A     -0.139340    18A     -0.139336

  @DF-RHF Final Energy: -2572.53368237816176

   => Energetics <=

    Nuclear Repulsion Energy =              0.0000000000000000
    One-Electron Energy =               -3593.6771759170196674
    Two-Electron Energy =                1021.1434935388581380
    Total Energy =                      -2572.5336823781617568
 Dipole X            :       -218.5174817          212.4473763           -6.0701054
 Dipole Y            :         -0.0001558            0.0000000           -0.0001558
 Dipole Z            :          0.0000000            0.0000000            0.0000000
 Magnitude           :                                                    6.0701054

    SAPT Results
  --------------------------------------------------------------------------------------------------------
    Electrostatics                -29.52050681 [mEh]     -18.52439769 [kcal/mol]     -77.50607994 [kJ/mol]
      Elst10,r                    -29.42596877 [mEh]     -18.46507418 [kcal/mol]     -77.25787036 [kJ/mol]
      Elst12,r                     -0.09453804 [mEh]      -0.05932351 [kcal/mol]      -0.24820958 [kJ/mol]

    Exchange                       25.48374322 [mEh]      15.99129030 [kcal/mol]      66.90755861 [kJ/mol]
      Exch10                       22.97767829 [mEh]      14.41871081 [kcal/mol]      60.32788603 [kJ/mol]
      Exch10(S^2)                  22.63301235 [mEh]      14.20242967 [kcal/mol]      59.42296574 [kJ/mol]
      Exch11(S^2)                   0.93585836 [mEh]       0.58725999 [kcal/mol]       2.45709580 [kJ/mol]
      Exch12(S^2)                   1.57020657 [mEh]       0.98531950 [kcal/mol]       4.12257678 [kJ/mol]

    Induction                      -9.63986725 [mEh]      -6.04910803 [kcal/mol]     -25.30946798 [kJ/mol]
      Ind20,r                     -19.75698844 [mEh]     -12.39769742 [kcal/mol]     -51.87196601 [kJ/mol]
      Ind22                        -2.59471876 [mEh]      -1.62821060 [kcal/mol]      -6.81243315 [kJ/mol]
      Exch-Ind20,r                 14.09658607 [mEh]       8.84574131 [kcal/mol]      37.01058163 [kJ/mol]
      Exch-Ind22                    1.85132852 [mEh]       1.16172619 [kcal/mol]       4.86066237 [kJ/mol]
      delta HF,r (2)               -3.23607465 [mEh]      -2.03066750 [kcal/mol]      -8.49631282 [kJ/mol]

    Dispersion                     -7.49227830 [mEh]      -4.70147562 [kcal/mol]     -19.67097397 [kJ/mol]
      Disp20                       -8.76563200 [mEh]      -5.50051713 [kcal/mol]     -23.01416366 [kJ/mol]
      Disp21                        0.54952397 [mEh]       0.34483149 [kcal/mol]       1.44277497 [kJ/mol]
      Disp22 (SDQ)                 -0.00256582 [mEh]      -0.00161007 [kcal/mol]      -0.00673655 [kJ/mol]
      Disp22 (T)                   -1.33390354 [mEh]      -0.83703711 [kcal/mol]      -3.50216326 [kJ/mol]
      Est. Disp22 (T)              -1.53435911 [mEh]      -0.96282488 [kcal/mol]      -4.02845928 [kJ/mol]
      Exch-Disp20                   2.26075466 [mEh]       1.41864497 [kcal/mol]       5.93561054 [kJ/mol]

  Total HF                        -15.34476750 [mEh]      -9.62898698 [kcal/mol]     -40.28768153 [kJ/mol]
  Total SAPT0                     -21.84964485 [mEh]     -13.71085914 [kcal/mol]     -57.36623464 [kJ/mol]
  Total SAPT2                     -20.18150818 [mEh]     -12.66408758 [kcal/mol]     -52.98654243 [kJ/mol]
  Total SAPT2+                    -21.16890914 [mEh]     -13.28369103 [kcal/mol]     -55.57896329 [kJ/mol]

  Special recipe for scaled SAPT0 (see Manual):
    Electrostatics sSAPT0         -29.42596877 [mEh]     -18.46507418 [kcal/mol]     -77.25787036 [kJ/mol]
    Exchange sSAPT0                22.97767829 [mEh]      14.41871081 [kcal/mol]      60.32788603 [kJ/mol]
    Induction sSAPT0               -8.24261208 [mEh]      -5.17231717 [kcal/mol]     -21.64097503 [kJ/mol]
    Dispersion sSAPT0              -6.40001307 [mEh]      -4.01606884 [kcal/mol]     -16.80323201 [kJ/mol]
  Total sSAPT0                    -21.09091563 [mEh]     -13.23474937 [kcal/mol]     -55.37419136 [kJ/mol]
  --------------------------------------------------------------------------------------------------------

*** Psi4 exiting successfully. Buy a developer a beer!
