                               Psi4 1.9 release

  ==> Input File <==

--------------------------------------------------------------------------
MEMORY 60 GB

molecule dimer {
0 1
O      0.000000     0.000000     0.000000
H      0.620454     0.730363     0.000000
H      0.614329    -0.769465     0.000000
--
-1 1
Br     3.212066     0.000000     0.000000

units ang
no_reorient
no_com
symmetry c1
}

set {
basis        aug-cc-pVTZ
scf_type     df
}

energy("sapt2+")
--------------------------------------------------------------------------

  //              Dimer HF             //
    Molecular point group: c1
  Charge       = -1
  Multiplicity = 1
  Basis Set: AUG-CC-PVTZ
    Blend: AUG-CC-PVTZ
  Basis Set: (AUG-CC-PVTZ AUX)
    Blend: AUG-CC-PVTZ-JKFIT
  @DF-RHF Final Energy: -2648.60633205011118
    Total Energy =                      -2648.6063320501107228
 Dipole X            :       -219.6789757          214.7807780           -4.8981977
 Dipole Y            :          0.0538775           -0.0738921           -0.0200145
 Dipole Z            :          0.0000000            0.0000000            0.0000000
 Magnitude           :                                                    4.8982386
  //            Monomer A HF           //
    Molecular point group: c1
  Multiplicity = 1
  Basis Set: AUG-CC-PVTZ
    Blend: AUG-CC-PVTZ
  Basis Set: (AUG-CC-PVTZ AUX)
    Blend: AUG-CC-PVTZ-JKFIT
  @DF-RHF Final Energy:   -76.05853912744539
    Total Energy =                        -76.0585391274453855
  //            Monomer B HF           //
    Molecular point group: c1

    Geometry (in Angstrom), charge = -1, multiplicity = 1:

       Center              X                  Y                   Z               Mass
    ------------   -----------------  -----------------  -----------------  -----------------
      Gh(O)           0.000000000000     0.000000000000     0.000000000000    15.994914619570
      Gh(H)           0.620454000000     0.730363000000     0.000000000000     1.007825032230
      Gh(H)           0.614329000000    -0.769465000000     0.000000000000     1.007825032230
         BR           3.212066000000     0.000000000000     0.000000000000    78.918337600000

  Charge       = -1
  Multiplicity = 1
  Basis Set: AUG-CC-PVTZ
    Blend: AUG-CC-PVTZ
  Basis Set: (AUG-CC-PVTZ AUX)
    Blend: AUG-CC-PVTZ-JKFIT

    Orbital Energies [Eh]
    ---------------------

    Doubly Occupied:

       1A   -489.720671     2A    -64.860674     3A    -58.215157
       4A    -58.215157     5A    -58.215153     6A     -9.532921
       7A     -7.140270     8A     -7.140267     9A     -7.140254
      10A     -2.881942    11A     -2.881942    12A     -2.881940
      13A     -2.881931    14A     -2.881919    15A     -0.685998
      16A     -0.139338    17A     -0.139337    18A     -0.139336

  @DF-RHF Final Energy: -2572.53368023936036

   => Energetics <=

    Nuclear Repulsion Energy =              0.0000000000000000
    One-Electron Energy =               -3593.6789434137690478
    Two-Electron Energy =                1021.1452631744083419
    Total Energy =                      -2572.5336802393608195
 Dipole X            :       -218.5174279          212.4473763           -6.0700516
 Dipole Y            :          0.0000011            0.0000000            0.0000011
 Dipole Z            :          0.0000000            0.0000000            0.0000000
 Magnitude           :                                                    6.0700516

    SAPT Results
  --------------------------------------------------------------------------------------------------------
    Electrostatics                -27.69563117 [mEh]     -17.37927094 [kcal/mol]     -72.71486962 [kJ/mol]
      Elst10,r                    -27.72480134 [mEh]     -17.39757550 [kcal/mol]     -72.79145588 [kJ/mol]
      Elst12,r                      0.02917016 [mEh]       0.01830455 [kcal/mol]       0.07658625 [kJ/mol]

    Exchange                       21.07921537 [mEh]      13.22740734 [kcal/mol]      55.34347232 [kJ/mol]
      Exch10                       18.84455055 [mEh]      11.82513400 [kcal/mol]      49.47636066 [kJ/mol]
      Exch10(S^2)                  18.63837586 [mEh]      11.69575743 [kcal/mol]      48.93504907 [kJ/mol]
      Exch11(S^2)                   0.77090245 [mEh]       0.48374859 [kcal/mol]       2.02400412 [kJ/mol]
      Exch12(S^2)                   1.46376236 [mEh]       0.91852475 [kcal/mol]       3.84310754 [kJ/mol]

    Induction                      -5.78593064 [mEh]      -3.63072629 [kcal/mol]     -15.19095880 [kJ/mol]
      Ind20,r                     -16.53718540 [mEh]     -10.37724051 [kcal/mol]     -43.41837429 [kJ/mol]
      Ind22                        -2.39902269 [mEh]      -1.50540947 [kcal/mol]      -6.29863322 [kJ/mol]
      Exch-Ind20,r                 12.72175632 [mEh]       7.98302261 [kcal/mol]      33.40096661 [kJ/mol]
      Exch-Ind22                    1.84552458 [mEh]       1.15808416 [kcal/mol]       4.84542411 [kJ/mol]
      delta HF,r (2)               -1.41700344 [mEh]      -0.88918308 [kcal/mol]      -3.72034201 [kJ/mol]

    Dispersion                     -6.78792018 [mEh]      -4.25948422 [kcal/mol]     -17.82168198 [kJ/mol]
      Disp20                       -7.90907584 [mEh]      -4.96302002 [kcal/mol]     -20.76527575 [kJ/mol]
      Disp21                        0.48473751 [mEh]       0.30417738 [kcal/mol]       1.27267816 [kJ/mol]
      Disp22 (SDQ)                 -0.05271521 [mEh]      -0.03307929 [kcal/mol]      -0.13840377 [kJ/mol]
      Disp22 (T)                   -1.22721916 [mEh]      -0.77009165 [kcal/mol]      -3.22206347 [kJ/mol]
      Est. Disp22 (T)              -1.40994819 [mEh]      -0.88475585 [kcal/mol]      -3.70181846 [kJ/mol]
      Exch-Disp20                   2.09908154 [mEh]       1.31719356 [kcal/mol]       5.51113783 [kJ/mol]

  Total HF                        -14.11268331 [mEh]      -8.85584247 [kcal/mol]     -37.05284491 [kJ/mol]
  Total SAPT0                     -19.92267760 [mEh]     -12.50166894 [kcal/mol]     -52.30698283 [kJ/mol]
  Total SAPT2                     -18.21234074 [mEh]     -11.42841635 [kcal/mol]     -47.81649402 [kJ/mol]
  Total SAPT2+                    -19.19026662 [mEh]     -12.04207411 [kcal/mol]     -50.38403808 [kJ/mol]

  Special recipe for scaled SAPT0 (see Manual):
    Electrostatics sSAPT0         -27.72480134 [mEh]     -17.39757550 [kcal/mol]     -72.79145588 [kJ/mol]
    Exchange sSAPT0                18.84455055 [mEh]      11.82513400 [kcal/mol]      49.47636066 [kJ/mol]
    Induction sSAPT0               -4.80556721 [mEh]      -3.01553895 [kcal/mol]     -12.61701498 [kJ/mol]
    Dispersion sSAPT0              -5.73956179 [mEh]      -3.60162940 [kcal/mol]     -15.06921741 [kJ/mol]
  Total sSAPT0                    -19.42537979 [mEh]     -12.18960985 [kcal/mol]     -51.00132761 [kJ/mol]
  --------------------------------------------------------------------------------------------------------

*** Psi4 exiting successfully. Buy a developer a beer!
