                               Psi4 1.9 release

  ==> Input File <==

--------------------------------------------------------------------------
MEMORY 60 GB

molecule dimer {
0 1
O      0.000000     0.000000     0.000000
H     -0.355437     0.889835     0.095239
H     -0.737575    -0.586632     0.197633
--
1 1
Li     1.828878     0.000000     0.000000

units ang
no_reorient
no_com
symmetry c1
}

set {
basis        aug-cc-pVTZ
scf_type     df
}

energy("sapt2+")
--------------------------------------------------------------------------

  //              Dimer HF             //
    Molecular point group: c1
  Charge       = 1
  Multiplicity = 1
  Basis Set: AUG-CC-PVTZ
    Blend: AUG-CC-PVTZ
  Basis Set: (AUG-CC-PVTZ AUX)
    Blend: AUG-CC-PVTZ-JKFIT + DEF2-UNIVERSAL-JKFIT
  @DF-RHF Final Energy:   -83.35089899273835
    Total Energy =                        -83.3508989927383368
 Dipole X            :         -6.0361607            8.3027423            2.2665816
 Dipole Y            :         -0.3620548            0.5729706            0.2109158
 Dipole Z            :         -0.3392581            0.5534479            0.2141898
 Magnitude           :                                                    2.2864284
  //            Monomer A HF           //
    Molecular point group: c1
  Multiplicity = 1
  Basis Set: AUG-CC-PVTZ
    Blend: AUG-CC-PVTZ
  Basis Set: (AUG-CC-PVTZ AUX)
    Blend: AUG-CC-PVTZ-JKFIT + DEF2-UNIVERSAL-JKFIT
  @DF-RHF Final Energy:   -76.06026063393581
    Total Energy =                        -76.0602606339358118
  //            Monomer B HF           //
    Molecular point group: c1

    Geometry (in Angstrom), charge = 1, multiplicity = 1:

       Center              X                  Y                   Z               Mass
    ------------   -----------------  -----------------  -----------------  -----------------
      Gh(O)           0.000000000000     0.000000000000     0.000000000000    15.994914619570
      Gh(H)          -0.355437000000     0.889835000000     0.095239000000     1.007825032230
      Gh(H)          -0.737575000000    -0.586632000000     0.197633000000     1.007825032230
         LI           1.828878000000     0.000000000000     0.000000000000     7.016003436600

  Charge       = 1
  Multiplicity = 1
  Basis Set: AUG-CC-PVTZ
    Blend: AUG-CC-PVTZ
  Basis Set: (AUG-CC-PVTZ AUX)
    Blend: AUG-CC-PVTZ-JKFIT + DEF2-UNIVERSAL-JKFIT

    Orbital Energies [Eh]
    ---------------------

    Doubly Occupied:

       1A     -2.792367

  @DF-RHF Final Energy:    -7.23638358947983

   => Energetics <=

    Nuclear Repulsion Energy =              0.0000000000000000
    One-Electron Energy =                  -8.8880322226522175
    Two-Electron Energy =                   1.6516486331723894
    Total Energy =                         -7.2363835894798285
 Dipole X            :         -6.9121727           10.3682356            3.4560629
 Dipole Y            :         -0.0000070            0.0000000           -0.0000070
 Dipole Z            :          0.0000086            0.0000000            0.0000086
 Magnitude           :                                                    3.4560629

    SAPT Results
  --------------------------------------------------------------------------------------------------------
    Electrostatics                -50.04549846 [mEh]     -31.40402440 [kcal/mol]    -131.39443809 [kJ/mol]
      Elst10,r                    -53.83200229 [mEh]     -33.78009143 [kcal/mol]    -141.33590255 [kJ/mol]
      Elst12,r                      3.78650384 [mEh]       2.37606703 [kcal/mol]       9.94146445 [kJ/mol]

    Exchange                       21.18910071 [mEh]      13.29636143 [kcal/mol]      55.63197624 [kJ/mol]
      Exch10                       19.95297715 [mEh]      12.52068219 [kcal/mol]      52.38653428 [kJ/mol]
      Exch10(S^2)                  19.84924275 [mEh]      12.45558787 [kcal/mol]      52.11417967 [kJ/mol]
      Exch11(S^2)                  -0.04017109 [mEh]      -0.02520774 [kcal/mol]      -0.10546918 [kJ/mol]
      Exch12(S^2)                   1.27629465 [mEh]       0.80088698 [kcal/mol]       3.35091114 [kJ/mol]

    Induction                     -21.93342367 [mEh]     -13.76343114 [kcal/mol]     -57.58619590 [kJ/mol]
      Ind20,r                     -33.38673762 [mEh]     -20.95049415 [kcal/mol]     -87.65686754 [kJ/mol]
      Ind22                        -2.75078025 [mEh]      -1.72614067 [kcal/mol]      -7.22217255 [kJ/mol]
      Exch-Ind20,r                 14.48088844 [mEh]       9.08689468 [kcal/mol]      38.01956735 [kJ/mol]
      Exch-Ind22                    1.19310076 [mEh]       0.74868203 [kcal/mol]       3.13248560 [kJ/mol]
      delta HF,r (2)               -1.46989499 [mEh]      -0.92237303 [kcal/mol]      -3.85920877 [kJ/mol]

    Dispersion                     -0.93902625 [mEh]      -0.58924787 [kcal/mol]      -2.46541307 [kJ/mol]
      Disp20                       -0.92550979 [mEh]      -0.58076616 [kcal/mol]      -2.42992562 [kJ/mol]
      Disp21                       -0.04318448 [mEh]      -0.02709867 [kcal/mol]      -0.11338083 [kJ/mol]
      Disp22 (SDQ)                 -0.01272241 [mEh]      -0.00798343 [kcal/mol]      -0.03340267 [kJ/mol]
      Disp22 (T)                   -0.04654600 [mEh]      -0.02920805 [kcal/mol]      -0.12220649 [kJ/mol]
      Est. Disp22 (T)              -0.05992051 [mEh]      -0.03760069 [kcal/mol]      -0.15732129 [kJ/mol]
      Exch-Disp20                   0.10231094 [mEh]       0.06420109 [kcal/mol]       0.26861734 [kJ/mol]

  Total HF                        -54.25476932 [mEh]     -34.04538175 [kcal/mol]    -142.44587723 [kJ/mol]
  Total SAPT0                     -55.07796817 [mEh]     -34.56194682 [kcal/mol]    -144.60718551 [kJ/mol]
  Total SAPT2                     -51.61302027 [mEh]     -32.38765919 [kcal/mol]    -135.50996604 [kJ/mol]
  Total SAPT2+                    -51.72884766 [mEh]     -32.46034198 [kcal/mol]    -135.81407083 [kJ/mol]

  Special recipe for scaled SAPT0 (see Manual):
    Electrostatics sSAPT0         -53.83200229 [mEh]     -33.78009143 [kcal/mol]    -141.33590255 [kJ/mol]
    Exchange sSAPT0                19.95297715 [mEh]      12.52068219 [kcal/mol]      52.38653428 [kJ/mol]
    Induction sSAPT0              -20.14751930 [mEh]     -12.64275923 [kcal/mol]     -52.89730463 [kJ/mol]
    Dispersion sSAPT0              -0.82158639 [mEh]      -0.51555324 [kcal/mol]      -2.15707476 [kJ/mol]
  Total sSAPT0                    -54.84813083 [mEh]     -34.41772172 [kcal/mol]    -144.00374766 [kJ/mol]
  --------------------------------------------------------------------------------------------------------

*** Psi4 exiting successfully. Buy a developer a beer!
