                               Psi4 1.9 release

  ==> Input File <==

--------------------------------------------------------------------------
MEMORY 60 GB

molecule dimer {
0 1
O      0.000000     0.000000     0.000000
H     -0.120867     0.954754     0.032386
H     -0.859101    -0.369011     0.230195
--
1 1
Li     1.828878     0.000000     0.000000

units ang
no_reorient
no_com
symmetry c1
}

set {
basis        aug-cc-pVTZ
scf_type     df
}

energy("sapt2+")
--------------------------------------------------------------------------

  //              Dimer HF             //
    Molecular point group: c1
  Charge       = 1
  Multiplicity = 1
  Basis Set: AUG-CC-PVTZ
    Blend: AUG-CC-PVTZ
  Basis Set: (AUG-CC-PVTZ AUX)
    Blend: AUG-CC-PVTZ-JKFIT + DEF2-UNIVERSAL-JKFIT
  @DF-RHF Final Energy:   -83.34516424730072
    Total Energy =                        -83.3451642473007155
 Dipole X            :         -6.1784466            8.5163645            2.3379179
 Dipole Y            :         -0.7004092            1.1068938            0.4064847
 Dipole Z            :         -0.3026548            0.4962062            0.1935514
 Magnitude           :                                                    2.3808721
  //            Monomer A HF           //
    Molecular point group: c1
  Multiplicity = 1
  Basis Set: AUG-CC-PVTZ
    Blend: AUG-CC-PVTZ
  Basis Set: (AUG-CC-PVTZ AUX)
    Blend: AUG-CC-PVTZ-JKFIT + DEF2-UNIVERSAL-JKFIT
  @DF-RHF Final Energy:   -76.06025896677727
    Total Energy =                        -76.0602589667772691
  //            Monomer B HF           //
    Molecular point group: c1

    Geometry (in Angstrom), charge = 1, multiplicity = 1:

       Center              X                  Y                   Z               Mass
    ------------   -----------------  -----------------  -----------------  -----------------
      Gh(O)           0.000000000000     0.000000000000     0.000000000000    15.994914619570
      Gh(H)          -0.120867000000     0.954754000000     0.032386000000     1.007825032230
      Gh(H)          -0.859101000000    -0.369011000000     0.230195000000     1.007825032230
         LI           1.828878000000     0.000000000000     0.000000000000     7.016003436600

  Charge       = 1
  Multiplicity = 1
  Basis Set: AUG-CC-PVTZ
    Blend: AUG-CC-PVTZ
  Basis Set: (AUG-CC-PVTZ AUX)
    Blend: AUG-CC-PVTZ-JKFIT + DEF2-UNIVERSAL-JKFIT

    Orbital Energies [Eh]
    ---------------------

    Doubly Occupied:

       1A     -2.792367

  @DF-RHF Final Energy:    -7.23638363467673

   => Energetics <=

    Nuclear Repulsion Energy =              0.0000000000000000
    One-Electron Energy =                  -8.8880330579919971
    Two-Electron Energy =                   1.6516494233152637
    Total Energy =                         -7.2363836346767334
 Dipole X            :         -6.9121783           10.3682356            3.4560573
 Dipole Y            :         -0.0000004            0.0000000           -0.0000004
 Dipole Z            :          0.0000130            0.0000000            0.0000130
 Magnitude           :                                                    3.4560573

    SAPT Results
  --------------------------------------------------------------------------------------------------------
    Electrostatics                -43.29484258 [mEh]     -27.16792388 [kcal/mol]    -113.67059353 [kJ/mol]
      Elst10,r                    -46.78601194 [mEh]     -29.35866573 [kcal/mol]    -122.83665741 [kJ/mol]
      Elst12,r                      3.49116936 [mEh]       2.19074185 [kcal/mol]       9.16606388 [kJ/mol]

    Exchange                       19.88191190 [mEh]      12.47608807 [kcal/mol]      52.19995250 [kJ/mol]
      Exch10                       18.65451924 [mEh]      11.70588755 [kcal/mol]      48.97743352 [kJ/mol]
      Exch10(S^2)                  18.56364019 [mEh]      11.64886009 [kcal/mol]      48.73883061 [kJ/mol]
      Exch11(S^2)                  -0.05376698 [mEh]      -0.03373929 [kcal/mol]      -0.14116517 [kJ/mol]
      Exch12(S^2)                   1.28115963 [mEh]       0.80393981 [kcal/mol]       3.36368415 [kJ/mol]

    Induction                     -21.98224122 [mEh]     -13.79406462 [kcal/mol]     -57.71436638 [kJ/mol]
      Ind20,r                     -32.44475471 [mEh]     -20.35939095 [kcal/mol]     -85.18369174 [kJ/mol]
      Ind22                        -2.72902939 [mEh]      -1.71249180 [kcal/mol]      -7.16506568 [kJ/mol]
      Exch-Ind20,r                 13.51681386 [mEh]       8.48192875 [kcal/mol]      35.48838989 [kJ/mol]
      Exch-Ind22                    1.13694132 [mEh]       0.71344145 [kcal/mol]       2.98503903 [kJ/mol]
      delta HF,r (2)               -1.46221230 [mEh]      -0.91755207 [kcal/mol]      -3.83903788 [kJ/mol]

    Dispersion                     -0.93164351 [mEh]      -0.58461513 [kcal/mol]      -2.44602970 [kJ/mol]
      Disp20                       -0.91411450 [mEh]      -0.57361551 [kcal/mol]      -2.40000729 [kJ/mol]
      Disp21                       -0.04031577 [mEh]      -0.02529853 [kcal/mol]      -0.10584904 [kJ/mol]
      Disp22 (SDQ)                 -0.01288736 [mEh]      -0.00808694 [kcal/mol]      -0.03383576 [kJ/mol]
      Disp22 (T)                   -0.04601402 [mEh]      -0.02887423 [kcal/mol]      -0.12080978 [kJ/mol]
      Est. Disp22 (T)              -0.05938259 [mEh]      -0.03726314 [kcal/mol]      -0.15590897 [kJ/mol]
      Exch-Disp20                   0.09505671 [mEh]       0.05964899 [kcal/mol]       0.24957136 [kJ/mol]

  Total HF                        -48.52164585 [mEh]     -30.44779245 [kcal/mol]    -127.39356362 [kJ/mol]
  Total SAPT0                     -49.34070364 [mEh]     -30.96175898 [kcal/mol]    -129.54399955 [kJ/mol]
  Total SAPT2                     -46.21422970 [mEh]     -28.99986696 [kcal/mol]    -121.33544335 [kJ/mol]
  Total SAPT2+                    -46.32681541 [mEh]     -29.07051556 [kcal/mol]    -121.63103711 [kJ/mol]

  Special recipe for scaled SAPT0 (see Manual):
    Electrostatics sSAPT0         -46.78601194 [mEh]     -29.35866573 [kcal/mol]    -122.83665741 [kJ/mol]
    Exchange sSAPT0                18.65451924 [mEh]      11.70588755 [kcal/mol]      48.97743352 [kJ/mol]
    Induction sSAPT0              -20.19066340 [mEh]     -12.66983256 [kcal/mol]     -53.01057944 [kJ/mol]
    Dispersion sSAPT0              -0.81765488 [mEh]      -0.51308619 [kcal/mol]      -2.14675260 [kJ/mol]
  Total sSAPT0                    -49.13981097 [mEh]     -30.83569692 [kcal/mol]    -129.01655593 [kJ/mol]
  --------------------------------------------------------------------------------------------------------

*** Psi4 exiting successfully. Buy a developer a beer!
