                               Psi4 1.9 release

  ==> Input File <==

--------------------------------------------------------------------------
MEMORY 60 GB

molecule dimer {
0 1
O      0.000000     0.000000     0.000000
H     -0.922221    -0.125130     0.247109
H      0.356437    -0.889406    -0.095507
--
1 1
Li     1.828878     0.000000     0.000000

units ang
no_reorient
no_com
symmetry c1
}

set {
basis        aug-cc-pVTZ
scf_type     df
}

energy("sapt2+")
--------------------------------------------------------------------------

  //              Dimer HF             //
    Molecular point group: c1
  Charge       = 1
  Multiplicity = 1
  Basis Set: AUG-CC-PVTZ
    Blend: AUG-CC-PVTZ
  Basis Set: (AUG-CC-PVTZ AUX)
    Blend: AUG-CC-PVTZ-JKFIT + DEF2-UNIVERSAL-JKFIT
  @DF-RHF Final Energy:   -83.32083873384249
    Total Energy =                        -83.3208387338424927
 Dipole X            :         -6.7110059            9.2990588            2.5880529
 Dipole Y            :          1.2244564           -1.9171952           -0.6927388
 Dipole Z            :         -0.1660360            0.2864863            0.1204502
 Magnitude           :                                                    2.6818675
  //            Monomer A HF           //
    Molecular point group: c1
  Multiplicity = 1
  Basis Set: AUG-CC-PVTZ
    Blend: AUG-CC-PVTZ
  Basis Set: (AUG-CC-PVTZ AUX)
    Blend: AUG-CC-PVTZ-JKFIT + DEF2-UNIVERSAL-JKFIT
  @DF-RHF Final Energy:   -76.06025900002365
    Total Energy =                        -76.0602590000236631
  //            Monomer B HF           //
    Molecular point group: c1

    Geometry (in Angstrom), charge = 1, multiplicity = 1:

       Center              X                  Y                   Z               Mass
    ------------   -----------------  -----------------  -----------------  -----------------
      Gh(O)           0.000000000000     0.000000000000     0.000000000000    15.994914619570
      Gh(H)          -0.922221000000    -0.125130000000     0.247109000000     1.007825032230
      Gh(H)           0.356437000000    -0.889406000000    -0.095507000000     1.007825032230
         LI           1.828878000000     0.000000000000     0.000000000000     7.016003436600

  Charge       = 1
  Multiplicity = 1
  Basis Set: AUG-CC-PVTZ
    Blend: AUG-CC-PVTZ
  Basis Set: (AUG-CC-PVTZ AUX)
    Blend: AUG-CC-PVTZ-JKFIT + DEF2-UNIVERSAL-JKFIT

    Orbital Energies [Eh]
    ---------------------

    Doubly Occupied:

       1A     -2.792367

  @DF-RHF Final Energy:    -7.23638365852208

   => Energetics <=

    Nuclear Repulsion Energy =              0.0000000000000000
    One-Electron Energy =                  -8.8880332075366351
    Two-Electron Energy =                   1.6516495490145575
    Total Energy =                         -7.2363836585220778
 Dipole X            :         -6.9121733           10.3682356            3.4560623
 Dipole Y            :          0.0000091            0.0000000            0.0000091
 Dipole Z            :          0.0000112            0.0000000            0.0000112
 Magnitude           :                                                    3.4560623

    SAPT Results
  --------------------------------------------------------------------------------------------------------
    Electrostatics                -17.00921674 [mEh]     -10.67344465 [kcal/mol]     -44.65769241 [kJ/mol]
      Elst10,r                    -19.76639534 [mEh]     -12.40360034 [kcal/mol]     -51.89666382 [kJ/mol]
      Elst12,r                      2.75717860 [mEh]       1.73015569 [kcal/mol]       7.23897141 [kJ/mol]

    Exchange                       17.94684122 [mEh]      11.26181289 [kcal/mol]      47.11942514 [kJ/mol]
      Exch10                       16.86321708 [mEh]      10.58182848 [kcal/mol]      44.27437035 [kJ/mol]
      Exch10(S^2)                  16.78816990 [mEh]      10.53473566 [kcal/mol]      44.07733399 [kJ/mol]
      Exch11(S^2)                  -0.09789909 [mEh]      -0.06143261 [kcal/mol]      -0.25703402 [kJ/mol]
      Exch12(S^2)                   1.18152323 [mEh]       0.74141702 [kcal/mol]       3.10208881 [kJ/mol]

    Induction                     -22.95575134 [mEh]     -14.40495144 [kcal/mol]     -60.27031684 [kJ/mol]
      Ind20,r                     -31.14162378 [mEh]     -19.54166395 [kcal/mol]     -81.76232196 [kJ/mol]
      Ind22                        -2.63451425 [mEh]      -1.65318265 [kcal/mol]      -6.91691620 [kJ/mol]
      Exch-Ind20,r                 11.48563474 [mEh]       7.20734461 [kcal/mol]      30.15552986 [kJ/mol]
      Exch-Ind22                    0.97165994 [mEh]       0.60972582 [kcal/mol]       2.55109283 [kJ/mol]
      delta HF,r (2)               -1.63690800 [mEh]      -1.02717528 [kcal/mol]      -4.29770137 [kJ/mol]

    Dispersion                     -0.99800887 [mEh]      -0.62626002 [kcal/mol]      -2.62027192 [kJ/mol]
      Disp20                       -0.96690703 [mEh]      -0.60674332 [kcal/mol]      -2.53861407 [kJ/mol]
      Disp21                       -0.04142364 [mEh]      -0.02599372 [kcal/mol]      -0.10875774 [kJ/mol]
      Disp22 (SDQ)                 -0.01036835 [mEh]      -0.00650624 [kcal/mol]      -0.02722210 [kJ/mol]
      Disp22 (T)                   -0.04782040 [mEh]      -0.03000775 [kcal/mol]      -0.12555244 [kJ/mol]
      Est. Disp22 (T)              -0.06237901 [mEh]      -0.03914342 [kcal/mol]      -0.16377607 [kJ/mol]
      Exch-Disp20                   0.08306917 [mEh]       0.05212669 [kcal/mol]       0.21809806 [kJ/mol]

  Total HF                        -24.19607530 [mEh]     -15.18326648 [kcal/mol]     -63.52678694 [kJ/mol]
  Total SAPT0                     -25.07991317 [mEh]     -15.73788311 [kcal/mol]     -65.84730294 [kJ/mol]
  Total SAPT2                     -22.90196473 [mEh]     -14.37119984 [kcal/mol]     -60.12910011 [kJ/mol]
  Total SAPT2+                    -23.01613573 [mEh]     -14.44284322 [kcal/mol]     -60.42885602 [kJ/mol]

  Special recipe for scaled SAPT0 (see Manual):
    Electrostatics sSAPT0         -19.76639534 [mEh]     -12.40360034 [kcal/mol]     -51.89666382 [kJ/mol]
    Exchange sSAPT0                16.86321708 [mEh]      10.58182848 [kcal/mol]      44.27437035 [kJ/mol]
    Induction sSAPT0              -21.13817675 [mEh]     -13.26440617 [kcal/mol]     -55.49827541 [kJ/mol]
    Dispersion sSAPT0              -0.88271886 [mEh]      -0.55391445 [kcal/mol]      -2.31757806 [kJ/mol]
  Total sSAPT0                    -24.92407388 [mEh]     -15.64009248 [kcal/mol]     -65.43814695 [kJ/mol]
  --------------------------------------------------------------------------------------------------------

*** Psi4 exiting successfully. Buy a developer a beer!
