                               Psi4 1.9 release

  ==> Input File <==

--------------------------------------------------------------------------
MEMORY 60 GB

molecule dimer {
0 1
O      0.000000     0.000000     0.000000
H      0.121940     0.954608    -0.032674
H     -0.922080    -0.126242     0.247071
--
1 1
Li     1.828878     0.000000     0.000000

units ang
no_reorient
no_com
symmetry c1
}

set {
basis        aug-cc-pVTZ
scf_type     df
}

energy("sapt2+")
--------------------------------------------------------------------------

  //              Dimer HF             //
    Molecular point group: c1
  Charge       = 1
  Multiplicity = 1
  Basis Set: AUG-CC-PVTZ
    Blend: AUG-CC-PVTZ
  Basis Set: (AUG-CC-PVTZ AUX)
    Blend: AUG-CC-PVTZ-JKFIT + DEF2-UNIVERSAL-JKFIT
  @DF-RHF Final Energy:   -83.33543573183481
    Total Energy =                        -83.3354357318348065
 Dipole X            :         -6.4072998            8.8561901            2.4488903
 Dipole Y            :         -0.9939916            1.5653849            0.5713933
 Dipole Z            :         -0.2439924            0.4051516            0.1611593
 Magnitude           :                                                    2.5198267
  //            Monomer A HF           //
    Molecular point group: c1
  Multiplicity = 1
  Basis Set: AUG-CC-PVTZ
    Blend: AUG-CC-PVTZ
  Basis Set: (AUG-CC-PVTZ AUX)
    Blend: AUG-CC-PVTZ-JKFIT + DEF2-UNIVERSAL-JKFIT
  @DF-RHF Final Energy:   -76.06025803999511
    Total Energy =                        -76.0602580399951194
  //            Monomer B HF           //
    Molecular point group: c1

    Geometry (in Angstrom), charge = 1, multiplicity = 1:

       Center              X                  Y                   Z               Mass
    ------------   -----------------  -----------------  -----------------  -----------------
      Gh(O)           0.000000000000     0.000000000000     0.000000000000    15.994914619570
      Gh(H)           0.121940000000     0.954608000000    -0.032674000000     1.007825032230
      Gh(H)          -0.922080000000    -0.126242000000     0.247071000000     1.007825032230
         LI           1.828878000000     0.000000000000     0.000000000000     7.016003436600

  Charge       = 1
  Multiplicity = 1
  Basis Set: AUG-CC-PVTZ
    Blend: AUG-CC-PVTZ
  Basis Set: (AUG-CC-PVTZ AUX)
    Blend: AUG-CC-PVTZ-JKFIT + DEF2-UNIVERSAL-JKFIT

    Orbital Energies [Eh]
    ---------------------

    Doubly Occupied:

       1A     -2.792367

  @DF-RHF Final Energy:    -7.23638361840806

   => Energetics <=

    Nuclear Repulsion Energy =              0.0000000000000000
    One-Electron Energy =                  -8.8880322694411920
    Two-Electron Energy =                   1.6516486510331283
    Total Energy =                         -7.2363836184080634
 Dipole X            :         -6.9121808           10.3682356            3.4560548
 Dipole Y            :          0.0000060            0.0000000            0.0000060
 Dipole Z            :          0.0000128            0.0000000            0.0000128
 Magnitude           :                                                    3.4560548

    SAPT Results
  --------------------------------------------------------------------------------------------------------
    Electrostatics                -32.30207754 [mEh]     -20.26985968 [kcal/mol]     -84.80909288 [kJ/mol]
      Elst10,r                    -35.41892610 [mEh]     -22.22571168 [kcal/mol]     -92.99237766 [kJ/mol]
      Elst12,r                      3.11684856 [mEh]       1.95585200 [kcal/mol]       8.18328478 [kJ/mol]

    Exchange                       18.35932061 [mEh]      11.52064761 [kcal/mol]      48.20238961 [kJ/mol]
      Exch10                       17.17821810 [mEh]      10.77949460 [kcal/mol]      45.10140540 [kJ/mol]
      Exch10(S^2)                  17.10077954 [mEh]      10.73090117 [kcal/mol]      44.89809049 [kJ/mol]
      Exch11(S^2)                  -0.07313822 [mEh]      -0.04589492 [kcal/mol]      -0.19202437 [kJ/mol]
      Exch12(S^2)                   1.25424073 [mEh]       0.78704794 [kcal/mol]       3.29300858 [kJ/mol]

    Induction                     -22.18911860 [mEh]     -13.92388214 [kcal/mol]     -58.25752286 [kJ/mol]
      Ind20,r                     -31.30311524 [mEh]     -19.64300137 [kcal/mol]     -82.18631775 [kJ/mol]
      Ind22                        -2.68599244 [mEh]      -1.68548570 [kcal/mol]      -7.05207217 [kJ/mol]
      Exch-Ind20,r                 12.23970716 [mEh]       7.68053220 [kcal/mol]      32.13534671 [kJ/mol]
      Exch-Ind22                    1.05023927 [mEh]       0.65903509 [kcal/mol]       2.75740282 [kJ/mol]
      delta HF,r (2)               -1.48995734 [mEh]      -0.93496235 [kcal/mol]      -3.91188247 [kJ/mol]

    Dispersion                     -0.94080144 [mEh]      -0.59036182 [kcal/mol]      -2.47007384 [kJ/mol]
      Disp20                       -0.91762560 [mEh]      -0.57581876 [kcal/mol]      -2.40922568 [kJ/mol]
      Disp21                       -0.03841819 [mEh]      -0.02410778 [kcal/mol]      -0.10086693 [kJ/mol]
      Disp22 (SDQ)                 -0.01235141 [mEh]      -0.00775062 [kcal/mol]      -0.03242861 [kJ/mol]
      Disp22 (T)                   -0.04585341 [mEh]      -0.02877345 [kcal/mol]      -0.12038811 [kJ/mol]
      Est. Disp22 (T)              -0.05951343 [mEh]      -0.03734524 [kcal/mol]      -0.15625250 [kJ/mol]
      Exch-Disp20                   0.08710719 [mEh]       0.05466058 [kcal/mol]       0.22869989 [kJ/mol]

  Total HF                        -38.79407343 [mEh]     -24.34364860 [kcal/mol]    -101.85382576 [kJ/mol]
  Total SAPT0                     -39.62459185 [mEh]     -24.86480678 [kcal/mol]    -104.03435156 [kJ/mol]
  Total SAPT2                     -36.96239394 [mEh]     -23.19425237 [kcal/mol]     -97.04475192 [kJ/mol]
  Total SAPT2+                    -37.07267697 [mEh]     -23.26345602 [kcal/mol]     -97.33429997 [kJ/mol]

  Special recipe for scaled SAPT0 (see Manual):
    Electrostatics sSAPT0         -35.41892610 [mEh]     -22.22571168 [kcal/mol]     -92.99237766 [kJ/mol]
    Exchange sSAPT0                17.17821810 [mEh]      10.77949460 [kcal/mol]      45.10140540 [kJ/mol]
    Induction sSAPT0              -20.38633377 [mEh]     -12.79261757 [kcal/mol]     -53.52431193 [kJ/mol]
    Dispersion sSAPT0              -0.82932969 [mEh]      -0.52041224 [kcal/mol]      -2.17740480 [kJ/mol]
  Total sSAPT0                    -39.45637146 [mEh]     -24.75924689 [kcal/mol]    -103.59268899 [kJ/mol]
  --------------------------------------------------------------------------------------------------------

*** Psi4 exiting successfully. Buy a developer a beer!
