                               Psi4 1.9 release

  ==> Input File <==

--------------------------------------------------------------------------
MEMORY 60 GB

molecule dimer {
0 1
O      0.000000     0.000000     0.000000
H     -0.565784     0.764276     0.151601
H     -0.565784    -0.764276     0.151601
--
1 1
Li     1.828878     0.000000     0.000000

units ang
no_reorient
no_com
symmetry c1
}

set {
basis        aug-cc-pVTZ
scf_type     df
}

energy("sapt2+")
--------------------------------------------------------------------------

  //              Dimer HF             //
    Molecular point group: c1
  Charge       = 1
  Multiplicity = 1
  Basis Set: AUG-CC-PVTZ
    Blend: AUG-CC-PVTZ
  Basis Set: (AUG-CC-PVTZ AUX)
    Blend: AUG-CC-PVTZ-JKFIT + DEF2-UNIVERSAL-JKFIT
  @DF-RHF Final Energy:   -83.35280494154281
    Total Energy =                        -83.3528049415428143
 Dipole X            :         -5.9878513            8.2298820            2.2420307
 Dipole Y            :         -0.0000000            0.0000000           -0.0000000
 Dipole Z            :         -0.3517272            0.5729687            0.2212415
 Magnitude           :                                                    2.2529202
  //            Monomer A HF           //
    Molecular point group: c1
  Multiplicity = 1
  Basis Set: AUG-CC-PVTZ
    Blend: AUG-CC-PVTZ
  Basis Set: (AUG-CC-PVTZ AUX)
    Blend: AUG-CC-PVTZ-JKFIT + DEF2-UNIVERSAL-JKFIT
  @DF-RHF Final Energy:   -76.06026148804811
    Total Energy =                        -76.0602614880481269
  //            Monomer B HF           //
    Molecular point group: c1

    Geometry (in Angstrom), charge = 1, multiplicity = 1:

       Center              X                  Y                   Z               Mass
    ------------   -----------------  -----------------  -----------------  -----------------
      Gh(O)           0.000000000000     0.000000000000     0.000000000000    15.994914619570
      Gh(H)          -0.565784000000     0.764276000000     0.151601000000     1.007825032230
      Gh(H)          -0.565784000000    -0.764276000000     0.151601000000     1.007825032230
         LI           1.828878000000     0.000000000000     0.000000000000     7.016003436600

  Charge       = 1
  Multiplicity = 1
  Basis Set: AUG-CC-PVTZ
    Blend: AUG-CC-PVTZ
  Basis Set: (AUG-CC-PVTZ AUX)
    Blend: AUG-CC-PVTZ-JKFIT + DEF2-UNIVERSAL-JKFIT

    Orbital Energies [Eh]
    ---------------------

    Doubly Occupied:

       1A     -2.792368

  @DF-RHF Final Energy:    -7.23638356507939

   => Energetics <=

    Nuclear Repulsion Energy =              0.0000000000000000
    One-Electron Energy =                  -8.8880315539538604
    Two-Electron Energy =                   1.6516479888744735
    Total Energy =                         -7.2363835650793868
 Dipole X            :         -6.9121696           10.3682356            3.4560661
 Dipole Y            :         -0.0000000            0.0000000           -0.0000000
 Dipole Z            :          0.0000050            0.0000000            0.0000050
 Magnitude           :                                                    3.4560661

    SAPT Results
  --------------------------------------------------------------------------------------------------------
    Electrostatics                -52.33376827 [mEh]     -32.83993539 [kcal/mol]    -137.40228967 [kJ/mol]
      Elst10,r                    -56.23250672 [mEh]     -35.28643070 [kcal/mol]    -147.63842605 [kJ/mol]
      Elst12,r                      3.89873845 [mEh]       2.44649531 [kcal/mol]      10.23613638 [kJ/mol]

    Exchange                       21.68169925 [mEh]      13.60547169 [kcal/mol]      56.92529353 [kJ/mol]
      Exch10                       20.44622945 [mEh]      12.83020269 [kcal/mol]      53.68156804 [kJ/mol]
      Exch10(S^2)                  20.33736909 [mEh]      12.76189178 [kcal/mol]      53.39575520 [kJ/mol]
      Exch11(S^2)                  -0.03494409 [mEh]      -0.02192775 [kcal/mol]      -0.09174570 [kJ/mol]
      Exch12(S^2)                   1.27041389 [mEh]       0.79719675 [kcal/mol]       3.33547120 [kJ/mol]

    Induction                     -21.91889538 [mEh]     -13.75431451 [kcal/mol]     -57.54805189 [kJ/mol]
      Ind20,r                     -33.72266448 [mEh]     -21.16129144 [kcal/mol]     -88.53884340 [kJ/mol]
      Ind22                        -2.75740814 [mEh]      -1.73029973 [kcal/mol]      -7.23957408 [kJ/mol]
      Exch-Ind20,r                 14.82408329 [mEh]       9.30225270 [kcal/mol]      38.92062531 [kJ/mol]
      Exch-Ind22                    1.21212391 [mEh]       0.76061924 [kcal/mol]       3.18243089 [kJ/mol]
      delta HF,r (2)               -1.47502995 [mEh]      -0.92559527 [kcal/mol]      -3.87269061 [kJ/mol]

    Dispersion                     -0.94495115 [mEh]      -0.59296580 [kcal/mol]      -2.48096891 [kJ/mol]
      Disp20                       -0.93300554 [mEh]      -0.58546982 [kcal/mol]      -2.44960571 [kJ/mol]
      Disp21                       -0.04452829 [mEh]      -0.02794192 [kcal/mol]      -0.11690901 [kJ/mol]
      Disp22 (SDQ)                 -0.01256656 [mEh]      -0.00788563 [kcal/mol]      -0.03299349 [kJ/mol]
      Disp22 (T)                   -0.04682521 [mEh]      -0.02938327 [kcal/mol]      -0.12293958 [kJ/mol]
      Est. Disp22 (T)              -0.06027530 [mEh]      -0.03782332 [kcal/mol]      -0.15825279 [kJ/mol]
      Exch-Disp20                   0.10542454 [mEh]       0.06615490 [kcal/mol]       0.27679209 [kJ/mol]

  Total HF                        -56.15988842 [mEh]     -35.24086203 [kcal/mol]    -147.44776672 [kJ/mol]
  Total SAPT0                     -56.98746942 [mEh]     -35.76017695 [kcal/mol]    -149.62058034 [kJ/mol]
  Total SAPT2                     -53.39854541 [mEh]     -33.50809313 [kcal/mol]    -140.19786165 [kJ/mol]
  Total SAPT2+                    -53.51591556 [mEh]     -33.58174401 [kcal/mol]    -140.50601694 [kJ/mol]

  Special recipe for scaled SAPT0 (see Manual):
    Electrostatics sSAPT0         -56.23250672 [mEh]     -35.28643070 [kcal/mol]    -147.63842605 [kJ/mol]
    Exchange sSAPT0                20.44622945 [mEh]      12.83020269 [kcal/mol]      53.68156804 [kJ/mol]
    Induction sSAPT0              -20.13428691 [mEh]     -12.63445579 [kcal/mol]     -52.86256301 [kJ/mol]
    Dispersion sSAPT0              -0.82587900 [mEh]      -0.51824690 [kcal/mol]      -2.16834501 [kJ/mol]
  Total sSAPT0                    -56.74644318 [mEh]     -35.60893070 [kcal/mol]    -148.98776604 [kJ/mol]
  --------------------------------------------------------------------------------------------------------

*** Psi4 exiting successfully. Buy a developer a beer!
