                               Psi4 1.9 release

  ==> Input File <==

--------------------------------------------------------------------------
MEMORY 60 GB

molecule dimer {
0 1
O      0.000000     0.000000     0.000000
H     -0.859254     0.364626     0.230236
H     -0.124611    -0.952699     0.033390
--
1 1
Na     2.158940     0.000000     0.000000

units ang
no_reorient
no_com
symmetry c1
}

set {
basis        aug-cc-pVTZ
scf_type     df
}

energy("sapt2+")
--------------------------------------------------------------------------

  //              Dimer HF             //
    Molecular point group: c1
  Charge       = 1
  Multiplicity = 1
  Basis Set: AUG-CC-PVTZ
    Blend: AUG-CC-PVTZ
  Basis Set: (AUG-CC-PVTZ AUX)
    Blend: AUG-CC-PVTZ-JKFIT + DEF2-UNIVERSAL-JKFIT
  @DF-RHF Final Energy:  -237.76811942661155
    Total Energy =                       -237.7681194266115199
 Dipole X            :        -39.9439647           43.0186231            3.0746584
 Dipole Y            :          0.7112870           -1.1112969           -0.4000099
 Dipole Z            :         -0.3098735            0.4981809            0.1883075
 Magnitude           :                                                    3.1062827
  //            Monomer A HF           //
    Molecular point group: c1
  Multiplicity = 1
  Basis Set: AUG-CC-PVTZ
    Blend: AUG-CC-PVTZ
  Basis Set: (AUG-CC-PVTZ AUX)
    Blend: AUG-CC-PVTZ-JKFIT + DEF2-UNIVERSAL-JKFIT
  @DF-RHF Final Energy:   -76.06036504112137
    Total Energy =                        -76.0603650411213721
  //            Monomer B HF           //
    Molecular point group: c1

    Geometry (in Angstrom), charge = 1, multiplicity = 1:

       Center              X                  Y                   Z               Mass
    ------------   -----------------  -----------------  -----------------  -----------------
      Gh(O)           0.000000000000     0.000000000000     0.000000000000    15.994914619570
      Gh(H)          -0.859254000000     0.364626000000     0.230236000000     1.007825032230
      Gh(H)          -0.124611000000    -0.952699000000     0.033390000000     1.007825032230
         NA           2.158940000000     0.000000000000     0.000000000000    22.989769282000

  Charge       = 1
  Multiplicity = 1
  Basis Set: AUG-CC-PVTZ
    Blend: AUG-CC-PVTZ
  Basis Set: (AUG-CC-PVTZ AUX)
    Blend: AUG-CC-PVTZ-JKFIT + DEF2-UNIVERSAL-JKFIT

    Orbital Energies [Eh]
    ---------------------

    Doubly Occupied:

       1A    -40.762623     2A     -3.074827     3A     -1.798138
       4A     -1.798016     5A     -1.797962

  @DF-RHF Final Energy:  -161.67604472709559

   => Energetics <=

    Nuclear Repulsion Energy =              0.0000000000000000
    One-Electron Energy =                -224.8889569090215446
    Two-Electron Energy =                  63.2129121819259652
    Total Energy =                       -161.6760447270955865
 Dipole X            :        -40.7986554           44.8778585            4.0792032
 Dipole Y            :         -0.0000341            0.0000000           -0.0000341
 Dipole Z            :          0.0000211            0.0000000            0.0000211
 Magnitude           :                                                    4.0792032

    SAPT Results
  --------------------------------------------------------------------------------------------------------
    Electrostatics                -35.81830502 [mEh]     -22.47632574 [kcal/mol]     -94.04094688 [kJ/mol]
      Elst10,r                    -37.84369920 [mEh]     -23.74727977 [kcal/mol]     -99.35861856 [kJ/mol]
      Elst12,r                      2.02539418 [mEh]       1.27095403 [kcal/mol]       5.31767167 [kJ/mol]

    Exchange                       17.24181847 [mEh]      10.81940443 [kcal/mol]      45.26838815 [kJ/mol]
      Exch10                       15.86971415 [mEh]       9.95839598 [kcal/mol]      41.66592877 [kJ/mol]
      Exch10(S^2)                  15.79878542 [mEh]       9.91388753 [kcal/mol]      41.47970541 [kJ/mol]
      Exch11(S^2)                  -0.12804514 [mEh]      -0.08034954 [kcal/mol]      -0.33618247 [kJ/mol]
      Exch12(S^2)                   1.50014946 [mEh]       0.94135800 [kcal/mol]       3.93864185 [kJ/mol]

    Induction                     -10.99844369 [mEh]      -6.90162761 [kcal/mol]     -28.87640992 [kJ/mol]
      Ind20,r                     -26.50015255 [mEh]     -16.62909678 [kcal/mol]     -69.57614094 [kJ/mol]
      Ind22                        -2.99473819 [mEh]      -1.87922659 [kcal/mol]      -7.86268404 [kJ/mol]
      Exch-Ind20,r                 15.32601831 [mEh]       9.61722169 [kcal/mol]      40.23845554 [kJ/mol]
      Exch-Ind22                    1.73196786 [mEh]       1.08682624 [kcal/mol]       4.54728098 [kJ/mol]
      delta HF,r (2)                1.43846089 [mEh]       0.90264784 [kcal/mol]       3.77667854 [kJ/mol]

    Dispersion                     -0.86549326 [mEh]      -0.54310522 [kcal/mol]      -2.27235223 [kJ/mol]
      Disp20                       -0.88751855 [mEh]      -0.55692630 [kcal/mol]      -2.33017963 [kJ/mol]
      Disp21                       -0.02421078 [mEh]      -0.01519250 [kcal/mol]      -0.06356540 [kJ/mol]
      Disp22 (SDQ)                 -0.04701774 [mEh]      -0.02950407 [kcal/mol]      -0.12344505 [kJ/mol]
      Disp22 (T)                   -0.06362536 [mEh]      -0.03992552 [kcal/mol]      -0.16704837 [kJ/mol]
      Est. Disp22 (T)              -0.07680954 [mEh]      -0.04819872 [kcal/mol]      -0.20166343 [kJ/mol]
      Exch-Disp20                   0.17006335 [mEh]       0.10671637 [kcal/mol]       0.44650127 [kJ/mol]

  Total HF                        -31.70965839 [mEh]     -19.89811105 [kcal/mol]     -83.25369665 [kJ/mol]
  Total SAPT0                     -32.42711359 [mEh]     -20.34832098 [kcal/mol]     -85.13737500 [kJ/mol]
  Total SAPT2                     -30.29238544 [mEh]     -19.00875885 [kcal/mol]     -79.53264701 [kJ/mol]
  Total SAPT2+                    -30.44042350 [mEh]     -19.10165413 [kcal/mol]     -79.92132088 [kJ/mol]

  Special recipe for scaled SAPT0 (see Manual):
    Electrostatics sSAPT0         -37.84369920 [mEh]     -23.74727977 [kcal/mol]     -99.35861856 [kJ/mol]
    Exchange sSAPT0                15.86971415 [mEh]       9.95839598 [kcal/mol]      41.66592877 [kJ/mol]
    Induction sSAPT0               -9.52832652 [mEh]      -5.97911516 [kcal/mol]     -25.01661783 [kJ/mol]
    Dispersion sSAPT0              -0.71515440 [mEh]      -0.44876616 [kcal/mol]      -1.87763761 [kJ/mol]
  Total sSAPT0                    -32.21746596 [mEh]     -20.21676511 [kcal/mol]     -84.58694522 [kJ/mol]
  --------------------------------------------------------------------------------------------------------

*** Psi4 exiting successfully. Buy a developer a beer!
