                               Psi4 1.9 release

  ==> Input File <==

--------------------------------------------------------------------------
MEMORY 60 GB

molecule dimer {
0 1
O      0.000000     0.000000     0.000000
H     -0.568035     0.760558     0.152204
H     -0.568035    -0.760558     0.152204
--
1 1
Na     2.158940     0.000000     0.000000

units ang
no_reorient
no_com
symmetry c1
}

set {
basis        aug-cc-pVTZ
scf_type     df
}

energy("sapt2+")
--------------------------------------------------------------------------

  //              Dimer HF             //
    Molecular point group: c1
  Charge       = 1
  Multiplicity = 1
  Basis Set: AUG-CC-PVTZ
    Blend: AUG-CC-PVTZ
  Basis Set: (AUG-CC-PVTZ AUX)
    Blend: AUG-CC-PVTZ-JKFIT + DEF2-UNIVERSAL-JKFIT
  @DF-RHF Final Energy:  -237.77392509328638
    Total Energy =                       -237.7739250932863797
 Dipole X            :        -39.7553108           42.7309974            2.9756866
 Dipole Y            :         -0.0000000            0.0000000           -0.0000000
 Dipole Z            :         -0.3593588            0.5752478            0.2158889
 Magnitude           :                                                    2.9835078
  //            Monomer A HF           //
    Molecular point group: c1
  Multiplicity = 1
  Basis Set: AUG-CC-PVTZ
    Blend: AUG-CC-PVTZ
  Basis Set: (AUG-CC-PVTZ AUX)
    Blend: AUG-CC-PVTZ-JKFIT + DEF2-UNIVERSAL-JKFIT
  @DF-RHF Final Energy:   -76.06037349312604
    Total Energy =                        -76.0603734931260362
  //            Monomer B HF           //
    Molecular point group: c1

    Geometry (in Angstrom), charge = 1, multiplicity = 1:

       Center              X                  Y                   Z               Mass
    ------------   -----------------  -----------------  -----------------  -----------------
      Gh(O)           0.000000000000     0.000000000000     0.000000000000    15.994914619570
      Gh(H)          -0.568035000000     0.760558000000     0.152204000000     1.007825032230
      Gh(H)          -0.568035000000    -0.760558000000     0.152204000000     1.007825032230
         NA           2.158940000000     0.000000000000     0.000000000000    22.989769282000

  Charge       = 1
  Multiplicity = 1
  Basis Set: AUG-CC-PVTZ
    Blend: AUG-CC-PVTZ
  Basis Set: (AUG-CC-PVTZ AUX)
    Blend: AUG-CC-PVTZ-JKFIT + DEF2-UNIVERSAL-JKFIT

    Orbital Energies [Eh]
    ---------------------

    Doubly Occupied:

       1A    -40.762599     2A     -3.074828     3A     -1.798152
       4A     -1.798013     5A     -1.797954

  @DF-RHF Final Energy:  -161.67604377036562

   => Energetics <=

    Nuclear Repulsion Energy =              0.0000000000000000
    One-Electron Energy =                -224.8889949905696426
    Two-Electron Energy =                  63.2129512202040189
    Total Energy =                       -161.6760437703656237
 Dipole X            :        -40.7985985           44.8778585            4.0792601
 Dipole Y            :          0.0000000            0.0000000            0.0000000
 Dipole Z            :          0.0000392            0.0000000            0.0000392
 Magnitude           :                                                    4.0792601

    SAPT Results
  --------------------------------------------------------------------------------------------------------
    Electrostatics                -42.74987837 [mEh]     -26.82595368 [kcal/mol]    -112.23979020 [kJ/mol]
      Elst10,r                    -45.03067166 [mEh]     -28.25717307 [kcal/mol]    -118.22801214 [kJ/mol]
      Elst12,r                      2.28079328 [mEh]       1.43121939 [kcal/mol]       5.98822194 [kJ/mol]

    Exchange                       18.58905363 [mEh]      11.66480726 [kcal/mol]      48.80555357 [kJ/mol]
      Exch10                       17.19907910 [mEh]      10.79258507 [kcal/mol]      45.15617594 [kJ/mol]
      Exch10(S^2)                  17.11426368 [mEh]      10.73936259 [kcal/mol]      44.93349309 [kJ/mol]
      Exch11(S^2)                  -0.12217121 [mEh]      -0.07666359 [kcal/mol]      -0.32076046 [kJ/mol]
      Exch12(S^2)                   1.51214574 [mEh]       0.94888578 [kcal/mol]       3.97013809 [kJ/mol]

    Induction                     -10.91222517 [mEh]      -6.84752467 [kcal/mol]     -28.65004323 [kJ/mol]
      Ind20,r                     -28.29525478 [mEh]     -17.75554044 [kcal/mol]     -74.28918120 [kJ/mol]
      Ind22                        -3.09334739 [mEh]      -1.94110479 [kcal/mol]      -8.12158244 [kJ/mol]
      Exch-Ind20,r                 16.98951084 [mEh]      10.66107901 [kcal/mol]      44.60595457 [kJ/mol]
      Exch-Ind22                    1.85735945 [mEh]       1.16551065 [kcal/mol]       4.87649657 [kJ/mol]
      delta HF,r (2)                1.62950671 [mEh]       1.02253090 [kcal/mol]       4.27826927 [kJ/mol]

    Dispersion                     -0.84746595 [mEh]      -0.53179291 [kcal/mol]      -2.22502153 [kJ/mol]
      Disp20                       -0.87667715 [mEh]      -0.55012322 [kcal/mol]      -2.30171554 [kJ/mol]
      Disp21                       -0.02566733 [mEh]      -0.01610649 [kcal/mol]      -0.06738956 [kJ/mol]
      Disp22 (SDQ)                 -0.04731169 [mEh]      -0.02968853 [kcal/mol]      -0.12421683 [kJ/mol]
      Disp22 (T)                   -0.05910562 [mEh]      -0.03708934 [kcal/mol]      -0.15518178 [kJ/mol]
      Est. Disp22 (T)              -0.07668901 [mEh]      -0.04812308 [kcal/mol]      -0.20134695 [kJ/mol]
      Exch-Disp20                   0.17887923 [mEh]       0.11224841 [kcal/mol]       0.46964735 [kJ/mol]

  Total HF                        -37.50782979 [mEh]     -23.53651854 [kcal/mol]     -98.47679356 [kJ/mol]
  Total SAPT0                     -38.20562772 [mEh]     -23.97439334 [kcal/mol]    -100.30886175 [kJ/mol]
  Total SAPT2                     -35.77084783 [mEh]     -22.44654590 [kcal/mol]     -93.91634805 [kJ/mol]
  Total SAPT2+                    -35.92051586 [mEh]     -22.54046400 [kcal/mol]     -94.30930139 [kJ/mol]

  Special recipe for scaled SAPT0 (see Manual):
    Electrostatics sSAPT0         -45.03067166 [mEh]     -28.25717307 [kcal/mol]    -118.22801214 [kJ/mol]
    Exchange sSAPT0                17.19907910 [mEh]      10.79258507 [kcal/mol]      45.15617594 [kJ/mol]
    Induction sSAPT0               -9.42239187 [mEh]      -5.91264017 [kcal/mol]     -24.73848645 [kJ/mol]
    Dispersion sSAPT0              -0.69512523 [mEh]      -0.43619767 [kcal/mol]      -1.82505105 [kJ/mol]
  Total sSAPT0                    -37.94910967 [mEh]     -23.81342584 [kcal/mol]     -99.63537370 [kJ/mol]
  --------------------------------------------------------------------------------------------------------

*** Psi4 exiting successfully. Buy a developer a beer!
