                               Psi4 1.9 release

  ==> Input File <==

--------------------------------------------------------------------------
MEMORY 60 GB

molecule dimer {
0 1
O      0.000000     0.000000     0.000000
H      0.117809     0.953626    -0.031567
H     -0.921132    -0.121965     0.246817
--
1 1
Na     2.158940     0.000000     0.000000

units ang
no_reorient
no_com
symmetry c1
}

set {
basis        aug-cc-pVTZ
scf_type     df
}

energy("sapt2+")
--------------------------------------------------------------------------

  //              Dimer HF             //
    Molecular point group: c1
  Charge       = 1
  Multiplicity = 1
  Basis Set: AUG-CC-PVTZ
    Blend: AUG-CC-PVTZ
  Basis Set: (AUG-CC-PVTZ AUX)
    Blend: AUG-CC-PVTZ-JKFIT + DEF2-UNIVERSAL-JKFIT
  @DF-RHF Final Energy:  -237.76063235277701
    Total Energy =                       -237.7606323527770087
 Dipole X            :        -40.1698297           43.3597981            3.1899684
 Dipole Y            :         -1.0097686            1.5716115            0.5618429
 Dipole Z            :         -0.2505320            0.4067635            0.1562315
 Magnitude           :                                                    3.2428343
  //            Monomer A HF           //
    Molecular point group: c1
  Multiplicity = 1
  Basis Set: AUG-CC-PVTZ
    Blend: AUG-CC-PVTZ
  Basis Set: (AUG-CC-PVTZ AUX)
    Blend: AUG-CC-PVTZ-JKFIT + DEF2-UNIVERSAL-JKFIT
  @DF-RHF Final Energy:   -76.06035943385351
    Total Energy =                        -76.0603594338535061
  //            Monomer B HF           //
    Molecular point group: c1

    Geometry (in Angstrom), charge = 1, multiplicity = 1:

       Center              X                  Y                   Z               Mass
    ------------   -----------------  -----------------  -----------------  -----------------
      Gh(O)           0.000000000000     0.000000000000     0.000000000000    15.994914619570
      Gh(H)           0.117809000000     0.953626000000    -0.031567000000     1.007825032230
      Gh(H)          -0.921132000000    -0.121965000000     0.246817000000     1.007825032230
         NA           2.158940000000     0.000000000000     0.000000000000    22.989769282000

  Charge       = 1
  Multiplicity = 1
  Basis Set: AUG-CC-PVTZ
    Blend: AUG-CC-PVTZ
  Basis Set: (AUG-CC-PVTZ AUX)
    Blend: AUG-CC-PVTZ-JKFIT + DEF2-UNIVERSAL-JKFIT

    Orbital Energies [Eh]
    ---------------------

    Doubly Occupied:

       1A    -40.762698     2A     -3.074852     3A     -1.798146
       4A     -1.798048     5A     -1.797990

  @DF-RHF Final Energy:  -161.67604516371819

   => Energetics <=

    Nuclear Repulsion Energy =              0.0000000000000000
    One-Electron Energy =                -224.8886249622204616
    Two-Electron Energy =                  63.2125797985022899
    Total Energy =                       -161.6760451637181859
 Dipole X            :        -40.7986660           44.8778585            4.0791925
 Dipole Y            :          0.0000467            0.0000000            0.0000467
 Dipole Z            :          0.0000094            0.0000000            0.0000094
 Magnitude           :                                                    4.0791925

    SAPT Results
  --------------------------------------------------------------------------------------------------------
    Electrostatics                -27.41643503 [mEh]     -17.20407272 [kcal/mol]     -71.98184026 [kJ/mol]
      Elst10,r                    -29.19285507 [mEh]     -18.31879312 [kcal/mol]     -76.64583042 [kJ/mol]
      Elst12,r                      1.77642004 [mEh]       1.11472040 [kcal/mol]       4.66399016 [kJ/mol]

    Exchange                       16.17410636 [mEh]      10.14940497 [kcal/mol]      42.46511039 [kJ/mol]
      Exch10                       14.84344437 [mEh]       9.31440197 [kcal/mol]      38.97145782 [kJ/mol]
      Exch10(S^2)                  14.78326354 [mEh]       9.27663792 [kcal/mol]      38.81345307 [kJ/mol]
      Exch11(S^2)                  -0.13617204 [mEh]      -0.08544924 [kcal/mol]      -0.35751964 [kJ/mol]
      Exch12(S^2)                   1.46683403 [mEh]       0.92045225 [kcal/mol]       3.85117221 [kJ/mol]

    Induction                     -11.16025818 [mEh]      -7.00316774 [kcal/mol]     -29.30125381 [kJ/mol]
      Ind20,r                     -24.87235637 [mEh]     -15.60763926 [kcal/mol]     -65.30236266 [kJ/mol]
      Ind22                        -2.86502639 [mEh]      -1.79783120 [kcal/mol]      -7.52212575 [kJ/mol]
      Exch-Ind20,r                 13.74358850 [mEh]       8.62423199 [kcal/mol]      36.08378663 [kJ/mol]
      Exch-Ind22                    1.58311272 [mEh]       0.99341823 [kcal/mol]       4.15646187 [kJ/mol]
      delta HF,r (2)                1.25042337 [mEh]       0.78465251 [kcal/mol]       3.28298610 [kJ/mol]

    Dispersion                     -0.89112703 [mEh]      -0.55919065 [kcal/mol]      -2.33965369 [kJ/mol]
      Disp20                       -0.90559942 [mEh]      -0.56827222 [kcal/mol]      -2.37765095 [kJ/mol]
      Disp21                       -0.02435173 [mEh]      -0.01528094 [kcal/mol]      -0.06393546 [kJ/mol]
      Disp22 (SDQ)                 -0.04642958 [mEh]      -0.02913500 [kcal/mol]      -0.12190085 [kJ/mol]
      Disp22 (T)                   -0.06416132 [mEh]      -0.04026183 [kcal/mol]      -0.16845552 [kJ/mol]
      Est. Disp22 (T)              -0.07777818 [mEh]      -0.04880655 [kcal/mol]      -0.20420658 [kJ/mol]
      Exch-Disp20                   0.16303188 [mEh]       0.10230405 [kcal/mol]       0.42804015 [kJ/mol]

  Total HF                        -24.22775521 [mEh]     -15.20314592 [kcal/mol]     -63.60996253 [kJ/mol]
  Total SAPT0                     -24.97032274 [mEh]     -15.66911408 [kcal/mol]     -65.55957333 [kJ/mol]
  Total SAPT2                     -23.14515439 [mEh]     -14.52380365 [kcal/mol]     -60.76759447 [kJ/mol]
  Total SAPT2+                    -23.29371388 [mEh]     -14.61702614 [kcal/mol]     -61.15763736 [kJ/mol]

  Special recipe for scaled SAPT0 (see Manual):
    Electrostatics sSAPT0         -29.19285507 [mEh]     -18.31879312 [kcal/mol]     -76.64583042 [kJ/mol]
    Exchange sSAPT0                14.84344437 [mEh]       9.31440197 [kcal/mol]      38.97145782 [kJ/mol]
    Induction sSAPT0               -9.70981497 [mEh]      -6.09300088 [kcal/mol]     -25.49311568 [kJ/mol]
    Dispersion sSAPT0              -0.74056837 [mEh]      -0.46471367 [kcal/mol]      -1.94436200 [kJ/mol]
  Total sSAPT0                    -24.79979404 [mEh]     -15.56210571 [kcal/mol]     -65.11185028 [kJ/mol]
  --------------------------------------------------------------------------------------------------------

*** Psi4 exiting successfully. Buy a developer a beer!
