                               Psi4 1.9 release

  ==> Input File <==

--------------------------------------------------------------------------
MEMORY 60 GB

molecule dimer {
0 1
O      0.000000     0.000000     0.000000
H     -0.358540     0.886847     0.096071
H     -0.738819    -0.582438     0.197966
--
1 1
Na     2.158940     0.000000     0.000000

units ang
no_reorient
no_com
symmetry c1
}

set {
basis        aug-cc-pVTZ
scf_type     df
}

energy("sapt2+")
--------------------------------------------------------------------------

  //              Dimer HF             //
    Molecular point group: c1
  Charge       = 1
  Multiplicity = 1
  Basis Set: AUG-CC-PVTZ
    Blend: AUG-CC-PVTZ
  Basis Set: (AUG-CC-PVTZ AUX)
    Blend: AUG-CC-PVTZ-JKFIT + DEF2-UNIVERSAL-JKFIT
  @DF-RHF Final Energy:  -237.77248260796821
    Total Energy =                       -237.7724826079682430
 Dipole X            :        -39.8031530           42.8041506            3.0009975
 Dipole Y            :         -0.3673933            0.5752496            0.2078564
 Dipole Z            :         -0.3468152            0.5556494            0.2088342
 Magnitude           :                                                    3.0154274
  //            Monomer A HF           //
    Molecular point group: c1
  Multiplicity = 1
  Basis Set: AUG-CC-PVTZ
    Blend: AUG-CC-PVTZ
  Basis Set: (AUG-CC-PVTZ AUX)
    Blend: AUG-CC-PVTZ-JKFIT + DEF2-UNIVERSAL-JKFIT
  @DF-RHF Final Energy:   -76.06037114876358
    Total Energy =                        -76.0603711487635792
  //            Monomer B HF           //
    Molecular point group: c1

    Geometry (in Angstrom), charge = 1, multiplicity = 1:

       Center              X                  Y                   Z               Mass
    ------------   -----------------  -----------------  -----------------  -----------------
      Gh(O)           0.000000000000     0.000000000000     0.000000000000    15.994914619570
      Gh(H)          -0.358540000000     0.886847000000     0.096071000000     1.007825032230
      Gh(H)          -0.738819000000    -0.582438000000     0.197966000000     1.007825032230
         NA           2.158940000000     0.000000000000     0.000000000000    22.989769282000

  Charge       = 1
  Multiplicity = 1
  Basis Set: AUG-CC-PVTZ
    Blend: AUG-CC-PVTZ
  Basis Set: (AUG-CC-PVTZ AUX)
    Blend: AUG-CC-PVTZ-JKFIT + DEF2-UNIVERSAL-JKFIT

    Orbital Energies [Eh]
    ---------------------

    Doubly Occupied:

       1A    -40.762606     2A     -3.074827     3A     -1.798147
       4A     -1.798013     5A     -1.797957

  @DF-RHF Final Energy:  -161.67604439940601

   => Energetics <=

    Nuclear Repulsion Energy =              0.0000000000000000
    One-Electron Energy =                -224.8889856780510854
    Two-Electron Energy =                  63.2129412786450757
    Total Energy =                       -161.6760443994060097
 Dipole X            :        -40.7986117           44.8778585            4.0792469
 Dipole Y            :          0.0000104            0.0000000            0.0000104
 Dipole Z            :          0.0000337            0.0000000            0.0000337
 Magnitude           :                                                    4.0792469

    SAPT Results
  --------------------------------------------------------------------------------------------------------
    Electrostatics                -40.99631624 [mEh]     -25.72557683 [kcal/mol]    -107.63581345 [kJ/mol]
      Elst10,r                    -43.20697171 [mEh]     -27.11278408 [kcal/mol]    -113.43988859 [kJ/mol]
      Elst12,r                      2.21065547 [mEh]       1.38720725 [kcal/mol]       5.80407514 [kJ/mol]

    Exchange                       18.21651382 [mEh]      11.43103500 [kcal/mol]      47.82745046 [kJ/mol]
      Exch10                       16.82872926 [mEh]      10.56018704 [kcal/mol]      44.18382257 [kJ/mol]
      Exch10(S^2)                  16.74784177 [mEh]      10.50942937 [kcal/mol]      43.97145250 [kJ/mol]
      Exch11(S^2)                  -0.12371308 [mEh]      -0.07763113 [kcal/mol]      -0.32480864 [kJ/mol]
      Exch12(S^2)                   1.51149765 [mEh]       0.94847909 [kcal/mol]       3.96843652 [kJ/mol]

    Induction                     -10.93247445 [mEh]      -6.86023129 [kcal/mol]     -28.70320773 [kJ/mol]
      Ind20,r                     -27.81511470 [mEh]     -17.45424799 [kcal/mol]     -73.02857359 [kJ/mol]
      Ind22                        -3.07011720 [mEh]      -1.92652763 [kcal/mol]      -8.06059160 [kJ/mol]
      Exch-Ind20,r                 16.54764090 [mEh]      10.38380144 [kcal/mol]      43.44582521 [kJ/mol]
      Exch-Ind22                    1.82646009 [mEh]       1.14612101 [kcal/mol]       4.79537031 [kJ/mol]
      delta HF,r (2)                1.57865645 [mEh]       0.99062188 [kcal/mol]       4.14476194 [kJ/mol]

    Dispersion                     -0.85201159 [mEh]      -0.53464535 [kcal/mol]      -2.23695613 [kJ/mol]
      Disp20                       -0.87984502 [mEh]      -0.55211109 [kcal/mol]      -2.31003278 [kJ/mol]
      Disp21                       -0.02518407 [mEh]      -0.01580324 [kcal/mol]      -0.06612076 [kJ/mol]
      Disp22 (SDQ)                 -0.04732824 [mEh]      -0.02969892 [kcal/mol]      -0.12426027 [kJ/mol]
      Disp22 (T)                   -0.06249972 [mEh]      -0.03921917 [kcal/mol]      -0.16409299 [kJ/mol]
      Est. Disp22 (T)              -0.07619228 [mEh]      -0.04781138 [kcal/mol]      -0.20004279 [kJ/mol]
      Exch-Disp20                   0.17653801 [mEh]       0.11077927 [kcal/mol]       0.46350048 [kJ/mol]

  Total HF                        -36.06705980 [mEh]     -22.63242171 [kcal/mol]     -94.69405246 [kJ/mol]
  Total SAPT0                     -36.77036681 [mEh]     -23.07375353 [kcal/mol]     -96.54058476 [kJ/mol]
  Total SAPT2                     -34.41558388 [mEh]     -21.59610493 [kcal/mol]     -90.35810302 [kJ/mol]
  Total SAPT2+                    -34.56428846 [mEh]     -21.68941846 [kcal/mol]     -90.74852684 [kJ/mol]

  Special recipe for scaled SAPT0 (see Manual):
    Electrostatics sSAPT0         -43.20697171 [mEh]     -27.11278408 [kcal/mol]    -113.43988859 [kJ/mol]
    Exchange sSAPT0                16.82872926 [mEh]      10.56018704 [kcal/mol]      44.18382257 [kJ/mol]
    Induction sSAPT0               -9.44789577 [mEh]      -5.92864411 [kcal/mol]     -24.80544694 [kJ/mol]
    Dispersion sSAPT0              -0.70073675 [mEh]      -0.43971895 [kcal/mol]      -1.83978408 [kJ/mol]
  Total sSAPT0                    -36.52687497 [mEh]     -22.92096009 [kcal/mol]     -95.90129703 [kJ/mol]
  --------------------------------------------------------------------------------------------------------

*** Psi4 exiting successfully. Buy a developer a beer!
