                               Psi4 1.9 release

  ==> Input File <==

--------------------------------------------------------------------------
MEMORY 60 GB

molecule dimer {
0 1
O      0.000000     0.000000     0.000000
H     -0.920237    -0.129007     0.246577
H      0.352202    -0.889565    -0.094372
--
1 1
Na     2.158940     0.000000     0.000000

units ang
no_reorient
no_com
symmetry c1
}

set {
basis        aug-cc-pVTZ
scf_type     df
}

energy("sapt2+")
--------------------------------------------------------------------------

  //              Dimer HF             //
    Molecular point group: c1
  Charge       = 1
  Multiplicity = 1
  Basis Set: AUG-CC-PVTZ
    Blend: AUG-CC-PVTZ
  Basis Set: (AUG-CC-PVTZ AUX)
    Blend: AUG-CC-PVTZ-JKFIT + DEF2-UNIVERSAL-JKFIT
  @DF-RHF Final Energy:  -237.74930528960766
    Total Energy =                       -237.7493052896076620
 Dipole X            :        -40.4674902           43.8044280            3.3369378
 Dipole Y            :          1.2428016           -1.9248221           -0.6820206
 Dipole Z            :         -0.1718708            0.2876258            0.1157549
 Magnitude           :                                                    3.4078886
  //            Monomer A HF           //
    Molecular point group: c1
  Multiplicity = 1
  Basis Set: AUG-CC-PVTZ
    Blend: AUG-CC-PVTZ
  Basis Set: (AUG-CC-PVTZ AUX)
    Blend: AUG-CC-PVTZ-JKFIT + DEF2-UNIVERSAL-JKFIT
  @DF-RHF Final Energy:   -76.06036092066846
    Total Energy =                        -76.0603609206684581
  //            Monomer B HF           //
    Molecular point group: c1

    Geometry (in Angstrom), charge = 1, multiplicity = 1:

       Center              X                  Y                   Z               Mass
    ------------   -----------------  -----------------  -----------------  -----------------
      Gh(O)           0.000000000000     0.000000000000     0.000000000000    15.994914619570
      Gh(H)          -0.920237000000    -0.129007000000     0.246577000000     1.007825032230
      Gh(H)           0.352202000000    -0.889565000000    -0.094372000000     1.007825032230
         NA           2.158940000000     0.000000000000     0.000000000000    22.989769282000

  Charge       = 1
  Multiplicity = 1
  Basis Set: AUG-CC-PVTZ
    Blend: AUG-CC-PVTZ
  Basis Set: (AUG-CC-PVTZ AUX)
    Blend: AUG-CC-PVTZ-JKFIT + DEF2-UNIVERSAL-JKFIT

    Orbital Energies [Eh]
    ---------------------

    Doubly Occupied:

       1A    -40.762634     2A     -3.074826     3A     -1.798115
       4A     -1.798036     5A     -1.797962

  @DF-RHF Final Energy:  -161.67604709745311

   => Energetics <=

    Nuclear Repulsion Energy =              0.0000000000000000
    One-Electron Energy =                -224.8889464349815057
    Two-Electron Energy =                  63.2128993375283983
    Total Energy =                       -161.6760470974531074
 Dipole X            :        -40.7986562           44.8778585            4.0792023
 Dipole Y            :         -0.0001003            0.0000000           -0.0001003
 Dipole Z            :         -0.0000057            0.0000000           -0.0000057
 Magnitude           :                                                    4.0792023

    SAPT Results
  --------------------------------------------------------------------------------------------------------
    Electrostatics                -15.99506521 [mEh]     -10.03705495 [kcal/mol]     -41.99503793 [kJ/mol]
      Elst10,r                    -17.48445949 [mEh]     -10.97166398 [kcal/mol]     -45.90544208 [kJ/mol]
      Elst12,r                      1.48939428 [mEh]       0.93460902 [kcal/mol]       3.91040415 [kJ/mol]

    Exchange                       16.15676145 [mEh]      10.13852087 [kcal/mol]      42.41957133 [kJ/mol]
      Exch10                       14.86326713 [mEh]       9.32684094 [kcal/mol]      39.02350248 [kJ/mol]
      Exch10(S^2)                  14.80577500 [mEh]       9.29076408 [kcal/mol]      38.87255690 [kJ/mol]
      Exch11(S^2)                  -0.15397695 [mEh]      -0.09662200 [kcal/mol]      -0.40426644 [kJ/mol]
      Exch12(S^2)                   1.44747127 [mEh]       0.90830193 [kcal/mol]       3.80033530 [kJ/mol]

    Induction                     -11.55940712 [mEh]      -7.25363748 [kcal/mol]     -30.34921921 [kJ/mol]
      Ind20,r                     -24.23974445 [mEh]     -15.21066929 [kcal/mol]     -63.64144029 [kJ/mol]
      Ind22                        -2.73345703 [mEh]      -1.71527019 [kcal/mol]      -7.17669046 [kJ/mol]
      Exch-Ind20,r                 12.85945118 [mEh]       8.06942744 [kcal/mol]      33.76248443 [kJ/mol]
      Exch-Ind22                    1.45012904 [mEh]       0.90996971 [kcal/mol]       3.80731326 [kJ/mol]
      delta HF,r (2)                1.10421415 [mEh]       0.69290484 [kcal/mol]       2.89911384 [kJ/mol]

    Dispersion                     -0.96214763 [mEh]      -0.60375675 [kcal/mol]      -2.52611824 [kJ/mol]
      Disp20                       -0.96922673 [mEh]      -0.60819896 [kcal/mol]      -2.54470443 [kJ/mol]
      Disp21                       -0.02948878 [mEh]      -0.01850449 [kcal/mol]      -0.07742277 [kJ/mol]
      Disp22 (SDQ)                 -0.04747732 [mEh]      -0.02979247 [kcal/mol]      -0.12465170 [kJ/mol]
      Disp22 (T)                   -0.06934157 [mEh]      -0.04351249 [kcal/mol]      -0.18205628 [kJ/mol]
      Est. Disp22 (T)              -0.08396129 [mEh]      -0.05268651 [kcal/mol]      -0.22044034 [kJ/mol]
      Exch-Disp20                   0.16800650 [mEh]       0.10542567 [kcal/mol]       0.44110100 [kJ/mol]

  Total HF                        -12.89727149 [mEh]      -8.09316004 [kcal/mol]     -33.86178162 [kJ/mol]
  Total SAPT0                     -13.69849172 [mEh]      -8.59593333 [kcal/mol]     -35.96538505 [kJ/mol]
  Total SAPT2                     -12.19893112 [mEh]      -7.65494485 [kcal/mol]     -32.02828924 [kJ/mol]
  Total SAPT2+                    -12.35985851 [mEh]      -7.75592831 [kcal/mol]     -32.45080405 [kJ/mol]

  Special recipe for scaled SAPT0 (see Manual):
    Electrostatics sSAPT0         -17.48445949 [mEh]     -10.97166398 [kcal/mol]     -45.90544208 [kJ/mol]
    Exchange sSAPT0                14.86326713 [mEh]       9.32684094 [kcal/mol]      39.02350248 [kJ/mol]
    Induction sSAPT0              -10.12569351 [mEh]      -6.35396861 [kcal/mol]     -26.58500465 [kJ/mol]
    Dispersion sSAPT0              -0.79925547 [mEh]      -0.50154038 [kcal/mol]      -2.09844495 [kJ/mol]
  Total sSAPT0                    -13.54614134 [mEh]      -8.50033203 [kcal/mol]     -35.56538920 [kJ/mol]
  --------------------------------------------------------------------------------------------------------

*** Psi4 exiting successfully. Buy a developer a beer!
