                               Psi4 1.9 release

  ==> Input File <==

--------------------------------------------------------------------------
MEMORY 60 GB

molecule dimer {
0 1
O      0.000000     0.000000     0.000000
H     -0.129686     0.951316     0.034749
H     -0.860634    -0.359385     0.230606
--
1 1
K      2.466222     0.000000     0.000000

units ang
no_reorient
no_com
symmetry c1
}

set {
basis        aug-cc-pVTZ
scf_type     df
}

energy("sapt2+")
--------------------------------------------------------------------------

  //              Dimer HF             //
    Molecular point group: c1
  Charge       = 1
  Multiplicity = 1
  Basis Set: AUG-CC-PVTZ
    Blend: AUG-CC-PVTZ
  Basis Set: (AUG-CC-PVTZ AUX)
    Blend: AUG-CC-PVTZ-JKFIT + DEF2-UNIVERSAL-JKFIT
  @DF-RHF Final Energy:  -675.09795942200708
    Total Energy =                       -675.0979594220070794
 Dipole X            :        -83.0501706           86.6777652            3.6275946
 Dipole Y            :         -0.7400655            1.1185875            0.3785220
 Dipole Z            :         -0.3134951            0.5014483            0.1879532
 Magnitude           :                                                    3.6521292
  //            Monomer A HF           //
    Molecular point group: c1
  Multiplicity = 1
  Basis Set: AUG-CC-PVTZ
    Blend: AUG-CC-PVTZ
  Basis Set: (AUG-CC-PVTZ AUX)
    Blend: AUG-CC-PVTZ-JKFIT + DEF2-UNIVERSAL-JKFIT
  @DF-RHF Final Energy:   -76.06033574744754
    Total Energy =                        -76.0603357474475388
  //            Monomer B HF           //
    Molecular point group: c1

    Geometry (in Angstrom), charge = 1, multiplicity = 1:

       Center              X                  Y                   Z               Mass
    ------------   -----------------  -----------------  -----------------  -----------------
      Gh(O)           0.000000000000     0.000000000000     0.000000000000    15.994914619570
      Gh(H)          -0.129686000000     0.951316000000     0.034749000000     1.007825032230
      Gh(H)          -0.860634000000    -0.359385000000     0.230606000000     1.007825032230
         K            2.466222000000     0.000000000000     0.000000000000    38.963706486400

  Charge       = 1
  Multiplicity = 1
  Basis Set: AUG-CC-PVTZ
    Blend: AUG-CC-PVTZ
  Basis Set: (AUG-CC-PVTZ AUX)
    Blend: AUG-CC-PVTZ-JKFIT + DEF2-UNIVERSAL-JKFIT

    Orbital Energies [Eh]
    ---------------------

    Doubly Occupied:

       1A   -133.753709     2A    -14.709160     3A    -11.739234
       4A    -11.739228     5A    -11.739228     6A     -1.964319
       7A     -1.170982     8A     -1.170912     9A     -1.170907

  @DF-RHF Final Energy:  -599.01750890744563

   => Energetics <=

    Nuclear Repulsion Energy =              0.0000000000000000
    One-Electron Energy =                -819.7196618701997295
    Two-Electron Energy =                 220.7021529627540701
    Total Energy =                       -599.0175089074456309
 Dipole X            :        -83.8890962           88.5491987            4.6601026
 Dipole Y            :          0.0000504            0.0000000            0.0000504
 Dipole Z            :          0.0000157            0.0000000            0.0000157
 Magnitude           :                                                    4.6601026

    SAPT Results
  --------------------------------------------------------------------------------------------------------
    Electrostatics                -31.10865179 [mEh]     -19.52097372 [kcal/mol]     -81.67575403 [kJ/mol]
      Elst10,r                    -32.12790420 [mEh]     -20.16056426 [kcal/mol]     -84.35180085 [kJ/mol]
      Elst12,r                      1.01925240 [mEh]       0.63959054 [kcal/mol]       2.67604681 [kJ/mol]

    Exchange                       22.02708882 [mEh]      13.82220692 [kcal/mol]      57.83211374 [kJ/mol]
      Exch10                       20.24863345 [mEh]      12.70620932 [kcal/mol]      53.16277979 [kJ/mol]
      Exch10(S^2)                  20.06219038 [mEh]      12.58921453 [kcal/mol]      52.67327358 [kJ/mol]
      Exch11(S^2)                   0.07404062 [mEh]       0.04646119 [kcal/mol]       0.19439362 [kJ/mol]
      Exch12(S^2)                   1.70441476 [mEh]       1.06953641 [kcal/mol]       4.47494033 [kJ/mol]

    Induction                      -9.34666568 [mEh]      -5.86512127 [kcal/mol]     -24.53966737 [kJ/mol]
      Ind20,r                     -23.46196546 [mEh]     -14.72260560 [kcal/mol]     -61.59938183 [kJ/mol]
      Ind22                        -3.44345584 [mEh]      -2.16080116 [kcal/mol]      -9.04079207 [kJ/mol]
      Exch-Ind20,r                 15.89102004 [mEh]       9.97176562 [kcal/mol]      41.72186737 [kJ/mol]
      Exch-Ind22                    2.33228652 [mEh]       1.46353189 [kcal/mol]       6.12341742 [kJ/mol]
      delta HF,r (2)               -0.66455094 [mEh]      -0.41701201 [kcal/mol]      -1.74477826 [kJ/mol]

    Dispersion                     -3.51767113 [mEh]      -2.20737196 [kcal/mol]      -9.23564428 [kJ/mol]
      Disp20                       -4.23676682 [mEh]      -2.65861131 [kcal/mol]     -11.12362974 [kJ/mol]
      Disp21                        0.51426065 [mEh]       0.32270343 [kcal/mol]       1.35019114 [kJ/mol]
      Disp22 (SDQ)                 -0.02745771 [mEh]      -0.01722997 [kcal/mol]      -0.07209021 [kJ/mol]
      Disp22 (T)                   -0.38095003 [mEh]      -0.23904976 [kcal/mol]      -1.00018418 [kJ/mol]
      Est. Disp22 (T)              -0.42891140 [mEh]      -0.26914597 [kcal/mol]      -1.12610674 [kJ/mol]
      Exch-Disp20                   0.66120415 [mEh]       0.41491187 [kcal/mol]       1.73599127 [kJ/mol]

  Total HF                        -20.11476711 [mEh]     -12.62220693 [kcal/mol]     -52.81131378 [kJ/mol]
  Total SAPT0                     -23.69032977 [mEh]     -14.86590637 [kcal/mol]     -62.19895225 [kJ/mol]
  Total SAPT2                     -22.00379132 [mEh]     -13.80758751 [kcal/mol]     -57.77094614 [kJ/mol]
  Total SAPT2+                    -21.94589978 [mEh]     -13.77126003 [kcal/mol]     -57.61895195 [kJ/mol]

  Special recipe for scaled SAPT0 (see Manual):
    Electrostatics sSAPT0         -32.12790420 [mEh]     -20.16056426 [kcal/mol]     -84.35180085 [kJ/mol]
    Exchange sSAPT0                20.24863345 [mEh]      12.70620932 [kcal/mol]      53.16277979 [kJ/mol]
    Induction sSAPT0               -7.78832840 [mEh]      -4.88724986 [kcal/mol]     -20.44825340 [kJ/mol]
    Dispersion sSAPT0              -3.55695660 [mEh]      -2.23202396 [kcal/mol]      -9.33878826 [kJ/mol]
  Total sSAPT0                    -23.22455575 [mEh]     -14.57362876 [kcal/mol]     -60.97606272 [kJ/mol]
  --------------------------------------------------------------------------------------------------------

*** Psi4 exiting successfully. Buy a developer a beer!
