                               Psi4 1.9 release

  ==> Input File <==

--------------------------------------------------------------------------
MEMORY 60 GB

molecule dimer {
0 1
O      0.000000     0.000000     0.000000
H     -0.918900    -0.134261     0.246219
H      0.347139    -0.890994    -0.093016
--
1 1
K      2.466222     0.000000     0.000000

units ang
no_reorient
no_com
symmetry c1
}

set {
basis        aug-cc-pVTZ
scf_type     df
}

energy("sapt2+")
--------------------------------------------------------------------------

  //              Dimer HF             //
    Molecular point group: c1
  Charge       = 1
  Multiplicity = 1
  Basis Set: AUG-CC-PVTZ
    Blend: AUG-CC-PVTZ
  Basis Set: (AUG-CC-PVTZ AUX)
    Blend: AUG-CC-PVTZ-JKFIT + DEF2-UNIVERSAL-JKFIT
  @DF-RHF Final Energy:  -675.08290391242008
    Total Energy =                       -675.0829039124200790
 Dipole X            :        -83.5489157           87.4687270            3.9198114
 Dipole Y            :          1.2899450           -1.9374512           -0.6475062
 Dipole Z            :         -0.1688514            0.2895117            0.1206603
 Magnitude           :                                                    3.9747634
  //            Monomer A HF           //
    Molecular point group: c1
  Multiplicity = 1
  Basis Set: AUG-CC-PVTZ
    Blend: AUG-CC-PVTZ
  Basis Set: (AUG-CC-PVTZ AUX)
    Blend: AUG-CC-PVTZ-JKFIT + DEF2-UNIVERSAL-JKFIT
  @DF-RHF Final Energy:   -76.06033174433097
    Total Energy =                        -76.0603317443309663
  //            Monomer B HF           //
    Molecular point group: c1

    Geometry (in Angstrom), charge = 1, multiplicity = 1:

       Center              X                  Y                   Z               Mass
    ------------   -----------------  -----------------  -----------------  -----------------
      Gh(O)           0.000000000000     0.000000000000     0.000000000000    15.994914619570
      Gh(H)          -0.918900000000    -0.134261000000     0.246219000000     1.007825032230
      Gh(H)           0.347139000000    -0.890994000000    -0.093016000000     1.007825032230
         K            2.466222000000     0.000000000000     0.000000000000    38.963706486400

  Charge       = 1
  Multiplicity = 1
  Basis Set: AUG-CC-PVTZ
    Blend: AUG-CC-PVTZ
  Basis Set: (AUG-CC-PVTZ AUX)
    Blend: AUG-CC-PVTZ-JKFIT + DEF2-UNIVERSAL-JKFIT

    Orbital Energies [Eh]
    ---------------------

    Doubly Occupied:

       1A   -133.753600     2A    -14.709075     3A    -11.739148
       4A    -11.739142     5A    -11.739141     6A     -1.964285
       7A     -1.170958     8A     -1.170886     9A     -1.170873

  @DF-RHF Final Energy:  -599.01750933899655

   => Energetics <=

    Nuclear Repulsion Energy =              0.0000000000000000
    One-Electron Energy =                -819.7208078185412887
    Two-Electron Energy =                 220.7032984795447987
    Total Energy =                       -599.0175093389964331
 Dipole X            :        -83.8891610           88.5491987            4.6600378
 Dipole Y            :         -0.0000907            0.0000000           -0.0000907
 Dipole Z            :         -0.0000211            0.0000000           -0.0000211
 Magnitude           :                                                    4.6600378

    SAPT Results
  --------------------------------------------------------------------------------------------------------
    Electrostatics                -15.56646775 [mEh]      -9.76810598 [kcal/mol]     -40.86975544 [kJ/mol]
      Elst10,r                    -16.32782209 [mEh]     -10.24586305 [kcal/mol]     -42.86869099 [kJ/mol]
      Elst12,r                      0.76135434 [mEh]       0.47775706 [kcal/mol]       1.99893555 [kJ/mol]

    Exchange                       21.49662645 [mEh]      13.48933675 [kcal/mol]      56.43938496 [kJ/mol]
      Exch10                       19.85113766 [mEh]      12.45677695 [kcal/mol]      52.11915475 [kJ/mol]
      Exch10(S^2)                  19.68759550 [mEh]      12.35415269 [kcal/mol]      51.68977487 [kJ/mol]
      Exch11(S^2)                   0.04969656 [mEh]       0.03118506 [kcal/mol]       0.13047830 [kJ/mol]
      Exch12(S^2)                   1.59579223 [mEh]       1.00137474 [kcal/mol]       4.18975192 [kJ/mol]

    Induction                      -9.69260541 [mEh]      -6.08220172 [kcal/mol]     -25.44793199 [kJ/mol]
      Ind20,r                     -20.92247712 [mEh]     -13.12905261 [kcal/mol]     -54.93195611 [kJ/mol]
      Ind22                        -3.01140671 [mEh]      -1.88968624 [kcal/mol]      -7.90644723 [kJ/mol]
      Exch-Ind20,r                 13.23507327 [mEh]       8.30513386 [kcal/mol]      34.74868008 [kJ/mol]
      Exch-Ind22                    1.90494597 [mEh]       1.19537164 [kcal/mol]       5.00143496 [kJ/mol]
      delta HF,r (2)               -0.89874081 [mEh]      -0.56396838 [kcal/mol]      -2.35964368 [kJ/mol]

    Dispersion                     -3.88956652 [mEh]      -2.44073984 [kcal/mol]     -10.21205550 [kJ/mol]
      Disp20                       -4.58682397 [mEh]      -2.87827549 [kcal/mol]     -12.04270467 [kJ/mol]
      Disp21                        0.53099634 [mEh]       0.33320523 [kcal/mol]       1.39413069 [kJ/mol]
      Disp22 (SDQ)                 -0.00706238 [mEh]      -0.00443171 [kcal/mol]      -0.01854228 [kJ/mol]
      Disp22 (T)                   -0.42030546 [mEh]      -0.26374566 [kcal/mol]      -1.10351183 [kJ/mol]
      Est. Disp22 (T)              -0.46785032 [mEh]      -0.29358051 [kcal/mol]      -1.22834084 [kJ/mol]
      Exch-Disp20                   0.64117381 [mEh]       0.40234264 [kcal/mol]       1.68340160 [kJ/mol]

  Total HF                         -5.06282909 [mEh]      -3.17697322 [kcal/mol]     -13.29245595 [kJ/mol]
  Total SAPT0                      -9.00847925 [mEh]      -5.65290608 [kcal/mol]     -23.65175902 [kJ/mol]
  Total SAPT2                      -7.70809687 [mEh]      -4.83690381 [kcal/mol]     -20.23760554 [kJ/mol]
  Total SAPT2+                     -7.65201323 [mEh]      -4.80171080 [kcal/mol]     -20.09035797 [kJ/mol]

  Special recipe for scaled SAPT0 (see Manual):
    Electrostatics sSAPT0         -16.32782209 [mEh]     -10.24586305 [kcal/mol]     -42.86869099 [kJ/mol]
    Exchange sSAPT0                19.85113766 [mEh]      12.45677695 [kcal/mol]      52.11915475 [kJ/mol]
    Induction sSAPT0               -8.25357144 [mEh]      -5.17919427 [kcal/mol]     -21.66974883 [kJ/mol]
    Dispersion sSAPT0              -3.92953864 [mEh]      -2.46582272 [kcal/mol]     -10.31700227 [kJ/mol]
  Total sSAPT0                     -8.65979450 [mEh]      -5.43410309 [kcal/mol]     -22.73628734 [kJ/mol]
  --------------------------------------------------------------------------------------------------------

*** Psi4 exiting successfully. Buy a developer a beer!
