                               Psi4 1.9 release

  ==> Input File <==

--------------------------------------------------------------------------
MEMORY 60 GB

molecule dimer {
0 1
O      0.000000     0.000000     0.000000
H     -0.571761     0.756733     0.153203
H     -0.571761    -0.756733     0.153203
--
1 1
K      2.466222     0.000000     0.000000

units ang
no_reorient
no_com
symmetry c1
}

set {
basis        aug-cc-pVTZ
scf_type     df
}

energy("sapt2+")
--------------------------------------------------------------------------

  //              Dimer HF             //
    Molecular point group: c1
  Charge       = 1
  Multiplicity = 1
  Basis Set: AUG-CC-PVTZ
    Blend: AUG-CC-PVTZ
  Basis Set: (AUG-CC-PVTZ AUX)
    Blend: AUG-CC-PVTZ-JKFIT + DEF2-UNIVERSAL-JKFIT
  @DF-RHF Final Energy:  -675.10234492855614
    Total Energy =                       -675.1023449285562492
 Dipole X            :        -82.8704920           86.3882553            3.5177634
 Dipole Y            :         -0.0000000            0.0000000           -0.0000000
 Dipole Z            :         -0.3654137            0.5790234            0.2136097
 Magnitude           :                                                    3.5242429
  //            Monomer A HF           //
    Molecular point group: c1
  Multiplicity = 1
  Basis Set: AUG-CC-PVTZ
    Blend: AUG-CC-PVTZ
  Basis Set: (AUG-CC-PVTZ AUX)
    Blend: AUG-CC-PVTZ-JKFIT + DEF2-UNIVERSAL-JKFIT
  @DF-RHF Final Energy:   -76.06033712648167
    Total Energy =                        -76.0603371264816701
  //            Monomer B HF           //
    Molecular point group: c1

    Geometry (in Angstrom), charge = 1, multiplicity = 1:

       Center              X                  Y                   Z               Mass
    ------------   -----------------  -----------------  -----------------  -----------------
      Gh(O)           0.000000000000     0.000000000000     0.000000000000    15.994914619570
      Gh(H)          -0.571761000000     0.756733000000     0.153203000000     1.007825032230
      Gh(H)          -0.571761000000    -0.756733000000     0.153203000000     1.007825032230
         K            2.466222000000     0.000000000000     0.000000000000    38.963706486400

  Charge       = 1
  Multiplicity = 1
  Basis Set: AUG-CC-PVTZ
    Blend: AUG-CC-PVTZ
  Basis Set: (AUG-CC-PVTZ AUX)
    Blend: AUG-CC-PVTZ-JKFIT + DEF2-UNIVERSAL-JKFIT

    Orbital Energies [Eh]
    ---------------------

    Doubly Occupied:

       1A   -133.753721     2A    -14.709167     3A    -11.739241
       4A    -11.739237     5A    -11.739237     6A     -1.964322
       7A     -1.170984     8A     -1.170916     9A     -1.170908

  @DF-RHF Final Energy:  -599.01750888743186

   => Energetics <=

    Nuclear Repulsion Energy =              0.0000000000000000
    One-Electron Energy =                -819.7195557375671342
    Two-Electron Energy =                 220.7020468501352468
    Total Energy =                       -599.0175088874318590
 Dipole X            :        -83.8891423           88.5491987            4.6600565
 Dipole Y            :         -0.0000000            0.0000000           -0.0000000
 Dipole Z            :          0.0000406            0.0000000            0.0000406
 Magnitude           :                                                    4.6600565

    SAPT Results
  --------------------------------------------------------------------------------------------------------
    Electrostatics                -36.70301679 [mEh]     -23.03149075 [kcal/mol]     -96.36375730 [kJ/mol]
      Elst10,r                    -37.84898284 [mEh]     -23.75059530 [kcal/mol]     -99.37249074 [kJ/mol]
      Elst12,r                      1.14596605 [mEh]       0.71910455 [kcal/mol]       3.00873344 [kJ/mol]

    Exchange                       23.47895710 [mEh]      14.73326802 [kcal/mol]      61.64399338 [kJ/mol]
      Exch10                       21.65971865 [mEh]      13.59167865 [kcal/mol]      56.86758349 [kJ/mol]
      Exch10(S^2)                  21.44104747 [mEh]      13.45446041 [kcal/mol]      56.29346237 [kJ/mol]
      Exch11(S^2)                   0.09165609 [mEh]       0.05751507 [kcal/mol]       0.24064304 [kJ/mol]
      Exch12(S^2)                   1.72758236 [mEh]       1.08407430 [kcal/mol]       4.53576685 [kJ/mol]

    Induction                      -9.41488516 [mEh]      -5.90792963 [kcal/mol]     -24.71877758 [kJ/mol]
      Ind20,r                     -25.44794130 [mEh]     -15.96882425 [kcal/mol]     -66.81356067 [kJ/mol]
      Ind22                        -3.62294041 [mEh]      -2.27342943 [kcal/mol]      -9.51202873 [kJ/mol]
      Exch-Ind20,r                 17.68464833 [mEh]      11.09728437 [kcal/mol]      46.43103779 [kJ/mol]
      Exch-Ind22                    2.51770571 [mEh]       1.57988418 [kcal/mol]       6.61023542 [kJ/mol]
      delta HF,r (2)               -0.54635749 [mEh]      -0.34284450 [kcal/mol]      -1.43446139 [kJ/mol]

    Dispersion                     -3.47614378 [mEh]      -2.18131315 [kcal/mol]      -9.12661424 [kJ/mol]
      Disp20                       -4.21778992 [mEh]      -2.64670313 [kcal/mol]     -11.07380591 [kJ/mol]
      Disp21                        0.49951550 [mEh]       0.31345071 [kcal/mol]       1.31147776 [kJ/mol]
      Disp22 (SDQ)                 -0.02939528 [mEh]      -0.01844582 [kcal/mol]      -0.07717729 [kJ/mol]
      Disp22 (T)                   -0.38089899 [mEh]      -0.23901773 [kcal/mol]      -1.00005017 [kJ/mol]
      Est. Disp22 (T)              -0.42879254 [mEh]      -0.26907138 [kcal/mol]      -1.12579467 [kJ/mol]
      Exch-Disp20                   0.70031846 [mEh]       0.43945647 [kcal/mol]       1.83868587 [kJ/mol]

  Total HF                        -24.49891464 [mEh]     -15.37330104 [kcal/mol]     -64.32189153 [kJ/mol]
  Total SAPT0                     -28.01638610 [mEh]     -17.58054770 [kcal/mol]     -73.55701157 [kJ/mol]
  Total SAPT2                     -26.15641630 [mEh]     -16.41339903 [kcal/mol]     -68.67366155 [kJ/mol]
  Total SAPT2+                    -26.11508863 [mEh]     -16.38746552 [kcal/mol]     -68.56515575 [kJ/mol]

  Special recipe for scaled SAPT0 (see Manual):
    Electrostatics sSAPT0         -37.84898284 [mEh]     -23.75059530 [kcal/mol]     -99.37249074 [kJ/mol]
    Exchange sSAPT0                21.65971865 [mEh]      13.59167865 [kcal/mol]      56.86758349 [kJ/mol]
    Induction sSAPT0               -7.76303116 [mEh]      -4.87137560 [kcal/mol]     -20.38183550 [kJ/mol]
    Dispersion sSAPT0              -3.49582513 [mEh]      -2.19366339 [kcal/mol]      -9.17828763 [kJ/mol]
  Total sSAPT0                    -27.44812048 [mEh]     -17.22395564 [kcal/mol]     -72.06503038 [kJ/mol]
  --------------------------------------------------------------------------------------------------------

*** Psi4 exiting successfully. Buy a developer a beer!
