                               Psi4 1.9 release

  ==> Input File <==

--------------------------------------------------------------------------
MEMORY 60 GB

molecule dimer {
0 1
O      0.000000     0.000000     0.000000
H     -0.363096     0.884151     0.097291
H     -0.741462    -0.577745     0.198674
--
1 1
K      2.466222     0.000000     0.000000

units ang
no_reorient
no_com
symmetry c1
}

set {
basis        aug-cc-pVTZ
scf_type     df
}

energy("sapt2+")
--------------------------------------------------------------------------

  //              Dimer HF             //
    Molecular point group: c1
  Charge       = 1
  Multiplicity = 1
  Basis Set: AUG-CC-PVTZ
    Blend: AUG-CC-PVTZ
  Basis Set: (AUG-CC-PVTZ AUX)
    Blend: AUG-CC-PVTZ-JKFIT + DEF2-UNIVERSAL-JKFIT
  @DF-RHF Final Energy:  -675.10126818598087
    Total Energy =                       -675.1012681859807572
 Dipole X            :        -82.9159966           86.4618866            3.5458900
 Dipole Y            :         -0.3822966            0.5790234            0.1967268
 Dipole Z            :         -0.3522555            0.5592928            0.2070373
 Magnitude           :                                                    3.5573729
  //            Monomer A HF           //
    Molecular point group: c1
  Multiplicity = 1
  Basis Set: AUG-CC-PVTZ
    Blend: AUG-CC-PVTZ
  Basis Set: (AUG-CC-PVTZ AUX)
    Blend: AUG-CC-PVTZ-JKFIT + DEF2-UNIVERSAL-JKFIT
  @DF-RHF Final Energy:   -76.06033689942034
    Total Energy =                        -76.0603368994203493
  //            Monomer B HF           //
    Molecular point group: c1

    Geometry (in Angstrom), charge = 1, multiplicity = 1:

       Center              X                  Y                   Z               Mass
    ------------   -----------------  -----------------  -----------------  -----------------
      Gh(O)           0.000000000000     0.000000000000     0.000000000000    15.994914619570
      Gh(H)          -0.363096000000     0.884151000000     0.097291000000     1.007825032230
      Gh(H)          -0.741462000000    -0.577745000000     0.198674000000     1.007825032230
         K            2.466222000000     0.000000000000     0.000000000000    38.963706486400

  Charge       = 1
  Multiplicity = 1
  Basis Set: AUG-CC-PVTZ
    Blend: AUG-CC-PVTZ
  Basis Set: (AUG-CC-PVTZ AUX)
    Blend: AUG-CC-PVTZ-JKFIT + DEF2-UNIVERSAL-JKFIT

    Orbital Energies [Eh]
    ---------------------

    Doubly Occupied:

       1A   -133.753719     2A    -14.709167     3A    -11.739241
       4A    -11.739236     5A    -11.739236     6A     -1.964322
       7A     -1.170985     8A     -1.170915     9A     -1.170908

  @DF-RHF Final Energy:  -599.01750887344997

   => Energetics <=

    Nuclear Repulsion Energy =              0.0000000000000000
    One-Electron Energy =                -819.7195640421158487
    Two-Electron Energy =                 220.7020551686658791
    Total Energy =                       -599.0175088734499695
 Dipole X            :        -83.8891243           88.5491987            4.6600744
 Dipole Y            :          0.0000435            0.0000000            0.0000435
 Dipole Z            :          0.0000336            0.0000000            0.0000336
 Magnitude           :                                                    4.6600744

    SAPT Results
  --------------------------------------------------------------------------------------------------------
    Electrostatics                -35.28347851 [mEh]     -22.14071703 [kcal/mol]     -92.63676005 [kJ/mol]
      Elst10,r                    -36.39484037 [mEh]     -22.83810713 [kcal/mol]     -95.55464023 [kJ/mol]
      Elst12,r                      1.11136187 [mEh]       0.69739010 [kcal/mol]       2.91788018 [kJ/mol]

    Exchange                       23.06763714 [mEh]      14.47516084 [kcal/mol]      60.56407296 [kJ/mol]
      Exch10                       21.25609530 [mEh]      13.33840117 [kcal/mol]      55.80787052 [kJ/mol]
      Exch10(S^2)                  21.04666766 [mEh]      13.20698335 [kcal/mol]      55.25801832 [kJ/mol]
      Exch11(S^2)                   0.08731505 [mEh]       0.05479102 [kcal/mol]       0.22924564 [kJ/mol]
      Exch12(S^2)                   1.72422679 [mEh]       1.08196864 [kcal/mol]       4.52695681 [kJ/mol]

    Induction                      -9.39040938 [mEh]      -5.89257085 [kcal/mol]     -24.65451642 [kJ/mol]
      Ind20,r                     -24.91205496 [mEh]     -15.63255050 [kcal/mol]     -65.40659128 [kJ/mol]
      Ind22                        -3.57788039 [mEh]      -2.24515384 [kcal/mol]      -9.39372366 [kJ/mol]
      Exch-Ind20,r                 17.20603964 [mEh]      10.79695288 [kcal/mol]      45.17445085 [kJ/mol]
      Exch-Ind22                    2.47113905 [mEh]       1.55066316 [kcal/mol]       6.48797468 [kJ/mol]
      delta HF,r (2)               -0.57765272 [mEh]      -0.36248255 [kcal/mol]      -1.51662701 [kJ/mol]

    Dispersion                     -3.48345036 [mEh]      -2.18589810 [kcal/mol]      -9.14579767 [kJ/mol]
      Disp20                       -4.21878403 [mEh]      -2.64732695 [kcal/mol]     -11.07641595 [kJ/mol]
      Disp21                        0.50399447 [mEh]       0.31626131 [kcal/mol]       1.32323730 [kJ/mol]
      Disp22 (SDQ)                 -0.02927867 [mEh]      -0.01837265 [kcal/mol]      -0.07687115 [kJ/mol]
      Disp22 (T)                   -0.38041360 [mEh]      -0.23871314 [kcal/mol]      -0.99877578 [kJ/mol]
      Est. Disp22 (T)              -0.42825277 [mEh]      -0.26873267 [kcal/mol]      -1.12437750 [kJ/mol]
      Exch-Disp20                   0.68887064 [mEh]       0.43227285 [kcal/mol]       1.80862962 [kJ/mol]

  Total HF                        -23.42241311 [mEh]     -14.69778613 [kcal/mol]     -61.49553715 [kJ/mol]
  Total SAPT0                     -26.95232650 [mEh]     -16.91284022 [kcal/mol]     -70.76332347 [kJ/mol]
  Total SAPT2                     -25.13616413 [mEh]     -15.77318113 [kcal/mol]     -65.99498983 [kJ/mol]
  Total SAPT2+                    -25.08970111 [mEh]     -15.74402514 [kcal/mol]     -65.87300118 [kJ/mol]

  Special recipe for scaled SAPT0 (see Manual):
    Electrostatics sSAPT0         -36.39484037 [mEh]     -22.83810713 [kcal/mol]     -95.55464023 [kJ/mol]
    Exchange sSAPT0                21.25609530 [mEh]      13.33840117 [kcal/mol]      55.80787052 [kJ/mol]
    Induction sSAPT0               -7.76490722 [mEh]      -4.87255284 [kcal/mol]     -20.38676109 [kJ/mol]
    Dispersion sSAPT0              -3.50914399 [mEh]      -2.20202110 [kcal/mol]      -9.21325627 [kJ/mol]
  Total sSAPT0                    -26.41279628 [mEh]     -16.57427989 [kcal/mol]     -69.34678708 [kJ/mol]
  --------------------------------------------------------------------------------------------------------

*** Psi4 exiting successfully. Buy a developer a beer!
