                               Psi4 1.9 release

  ==> Input File <==

--------------------------------------------------------------------------
MEMORY 60 GB

molecule dimer {
0 1
O      0.000000     0.000000     0.000000
H     -0.589103     0.738224     0.157850
H      0.904466     0.498213    -0.242351
--
-1 1
F      2.426389     0.000000     0.000000

units ang
no_reorient
no_com
symmetry c1
}

set {
basis        aug-cc-pVTZ
scf_type     df
}

energy("sapt2+")
--------------------------------------------------------------------------

  //              Dimer HF             //
    Molecular point group: c1
  Charge       = -1
  Multiplicity = 1
  Basis Set: AUG-CC-PVTZ
    Blend: AUG-CC-PVTZ
  Basis Set: (AUG-CC-PVTZ AUX)
    Blend: AUG-CC-PVTZ-JKFIT
  @DF-RHF Final Energy:  -175.52096354797311
    Total Energy =                       -175.5209635479731105
 Dipole X            :        -45.6084594           41.8628459           -3.7456136
 Dipole Y            :         -1.6373577            2.3365273            0.6991696
 Dipole Z            :          0.1261320           -0.1596837           -0.0335518
 Magnitude           :                                                    3.8104573
  //            Monomer A HF           //
    Molecular point group: c1
  Multiplicity = 1
  Basis Set: AUG-CC-PVTZ
    Blend: AUG-CC-PVTZ
  Basis Set: (AUG-CC-PVTZ AUX)
    Blend: AUG-CC-PVTZ-JKFIT
  @DF-RHF Final Energy:   -76.04859893882900
    Total Energy =                        -76.0485989388290022
  //            Monomer B HF           //
    Molecular point group: c1

    Geometry (in Angstrom), charge = -1, multiplicity = 1:

       Center              X                  Y                   Z               Mass
    ------------   -----------------  -----------------  -----------------  -----------------
      Gh(O)           0.000000000000     0.000000000000     0.000000000000    15.994914619570
      Gh(H)          -0.589103000000     0.738224000000     0.157850000000     1.007825032230
      Gh(H)           0.904466000000     0.498213000000    -0.242351000000     1.007825032230
         F            2.426389000000     0.000000000000     0.000000000000    18.998403162730

  Charge       = -1
  Multiplicity = 1
  Basis Set: AUG-CC-PVTZ
    Blend: AUG-CC-PVTZ
  Basis Set: (AUG-CC-PVTZ AUX)
    Blend: AUG-CC-PVTZ-JKFIT

    Orbital Energies [Eh]
    ---------------------

    Doubly Occupied:

       1A    -25.833785     2A     -1.076002     3A     -0.180995
       4A     -0.180938     5A     -0.180934

  @DF-RHF Final Energy:   -99.45088913504286

   => Energetics <=

    Nuclear Repulsion Energy =              0.0000000000000000
    One-Electron Energy =                -143.9964684217105741
    Two-Electron Energy =                  44.5455792866677172
    Total Energy =                        -99.4508891350428570
 Dipole X            :        -45.8523509           41.2668962           -4.5854548
 Dipole Y            :         -0.0000114            0.0000000           -0.0000114
 Dipole Z            :          0.0000875            0.0000000            0.0000875
 Magnitude           :                                                    4.5854548

    SAPT Results
  --------------------------------------------------------------------------------------------------------
    Electrostatics                -43.25394905 [mEh]     -27.14226281 [kcal/mol]    -113.56322758 [kJ/mol]
      Elst10,r                    -40.81909714 [mEh]     -25.61437016 [kcal/mol]    -107.17052476 [kJ/mol]
      Elst12,r                     -2.43485191 [mEh]      -1.52789264 [kcal/mol]      -6.39270282 [kJ/mol]

    Exchange                       52.83242235 [mEh]      33.15284554 [kcal/mol]     138.71150576 [kJ/mol]
      Exch10                       43.46912774 [mEh]      27.27728947 [kcal/mol]     114.12817915 [kJ/mol]
      Exch10(S^2)                  42.63074707 [mEh]      26.75119766 [kcal/mol]     111.92701102 [kJ/mol]
      Exch11(S^2)                   0.06620022 [mEh]       0.04154126 [kcal/mol]       0.17380865 [kJ/mol]
      Exch12(S^2)                   9.29709439 [mEh]       5.83401481 [kcal/mol]      24.40951796 [kJ/mol]

    Induction                     -27.50201181 [mEh]     -17.25777296 [kcal/mol]     -72.20652207 [kJ/mol]
      Ind20,r                     -31.49156075 [mEh]     -19.76125271 [kcal/mol]     -82.68108135 [kJ/mol]
      Ind22                        -6.65762634 [mEh]      -4.17772360 [kcal/mol]     -17.47959556 [kJ/mol]
      Exch-Ind20,r                 15.52018096 [mEh]       9.73906058 [kcal/mol]      40.74822949 [kJ/mol]
      Exch-Ind22                    3.28111923 [mEh]       2.05893340 [kcal/mol]       8.61457736 [kJ/mol]
      delta HF,r (2)               -8.15412491 [mEh]      -5.11679063 [kcal/mol]     -21.40865201 [kJ/mol]

    Dispersion                    -10.65194011 [mEh]      -6.68419333 [kcal/mol]     -27.96666490 [kJ/mol]
      Disp20                      -11.32804883 [mEh]      -7.10845796 [kcal/mol]     -29.74178811 [kJ/mol]
      Disp21                        0.48353344 [mEh]       0.30342182 [kcal/mol]       1.26951688 [kJ/mol]
      Disp22 (SDQ)                 -1.03242315 [mEh]      -0.64785531 [kcal/mol]      -2.71062661 [kJ/mol]
      Disp22 (T)                   -1.92861306 [mEh]      -1.21022297 [kcal/mol]      -5.06357289 [kJ/mol]
      Est. Disp22 (T)              -2.25100207 [mEh]      -1.41252513 [kcal/mol]      -5.91000513 [kJ/mol]
      Exch-Disp20                   3.47600050 [mEh]       2.18122325 [kcal/mol]       9.12623807 [kJ/mol]

  Total HF                        -21.47547410 [mEh]     -13.47606345 [kcal/mol]     -56.38384948 [kJ/mol]
  Total SAPT0                     -29.32752243 [mEh]     -18.40329817 [kcal/mol]     -76.99939953 [kJ/mol]
  Total SAPT2                     -25.77558684 [mEh]     -16.17442494 [kcal/mol]     -67.67379393 [kJ/mol]
  Total SAPT2+                    -28.57547863 [mEh]     -17.93138356 [kcal/mol]     -75.02490880 [kJ/mol]

  Special recipe for scaled SAPT0 (see Manual):
    Electrostatics sSAPT0         -40.81909714 [mEh]     -25.61437016 [kcal/mol]    -107.17052476 [kJ/mol]
    Exchange sSAPT0                43.46912774 [mEh]      27.27728947 [kcal/mol]     114.12817915 [kJ/mol]
    Induction sSAPT0              -23.19171467 [mEh]     -14.55302067 [kcal/mol]     -60.88983848 [kJ/mol]
    Dispersion sSAPT0              -7.64291065 [mEh]      -4.79599884 [kcal/mol]     -20.06645914 [kJ/mol]
  Total sSAPT0                    -28.18459472 [mEh]     -17.68610020 [kcal/mol]     -73.99864324 [kJ/mol]
  --------------------------------------------------------------------------------------------------------

*** Psi4 exiting successfully. Buy a developer a beer!
