                               Psi4 1.9 release

  ==> Input File <==

--------------------------------------------------------------------------
MEMORY 60 GB

molecule dimer {
0 1
O      0.000000     0.000000     0.000000
H      0.713070     0.609884    -0.191066
H      0.481236    -0.936372    -0.128947
--
-1 1
F      2.426389     0.000000     0.000000

units ang
no_reorient
no_com
symmetry c1
}

set {
basis        aug-cc-pVTZ
scf_type     df
}

energy("sapt2+")
--------------------------------------------------------------------------

  //              Dimer HF             //
    Molecular point group: c1
  Charge       = -1
  Multiplicity = 1
  Basis Set: AUG-CC-PVTZ
    Blend: AUG-CC-PVTZ
  Basis Set: (AUG-CC-PVTZ AUX)
    Blend: AUG-CC-PVTZ-JKFIT
  @DF-RHF Final Energy:  -175.52177019195022
    Total Energy =                       -175.5217701919502247
 Dipole X            :        -46.8689480           43.5238074           -3.3451405
 Dipole Y            :          0.4367966           -0.6169729           -0.1801763
 Dipole Z            :          0.4313197           -0.6047369           -0.1734173
 Magnitude           :                                                    3.3544750
  //            Monomer A HF           //
    Molecular point group: c1
  Multiplicity = 1
  Basis Set: AUG-CC-PVTZ
    Blend: AUG-CC-PVTZ
  Basis Set: (AUG-CC-PVTZ AUX)
    Blend: AUG-CC-PVTZ-JKFIT
  @DF-RHF Final Energy:   -76.04859864584824
    Total Energy =                        -76.0485986458482444
  //            Monomer B HF           //
    Molecular point group: c1

    Geometry (in Angstrom), charge = -1, multiplicity = 1:

       Center              X                  Y                   Z               Mass
    ------------   -----------------  -----------------  -----------------  -----------------
      Gh(O)           0.000000000000     0.000000000000     0.000000000000    15.994914619570
      Gh(H)           0.713070000000     0.609884000000    -0.191066000000     1.007825032230
      Gh(H)           0.481236000000    -0.936372000000    -0.128947000000     1.007825032230
         F            2.426389000000     0.000000000000     0.000000000000    18.998403162730

  Charge       = -1
  Multiplicity = 1
  Basis Set: AUG-CC-PVTZ
    Blend: AUG-CC-PVTZ
  Basis Set: (AUG-CC-PVTZ AUX)
    Blend: AUG-CC-PVTZ-JKFIT

    Orbital Energies [Eh]
    ---------------------

    Doubly Occupied:

       1A    -25.833771     2A     -1.076029     3A     -0.181023
       4A     -0.180956     5A     -0.180952

  @DF-RHF Final Energy:   -99.45088898388498

   => Energetics <=

    Nuclear Repulsion Energy =              0.0000000000000000
    One-Electron Energy =                -143.9963138627339276
    Two-Electron Energy =                  44.5454248788489409
    Total Energy =                        -99.4508889838849939
 Dipole X            :        -45.8530282           41.2668962           -4.5861321
 Dipole Y            :         -0.0004333            0.0000000           -0.0004333
 Dipole Z            :          0.0000668            0.0000000            0.0000668
 Magnitude           :                                                    4.5861321

    SAPT Results
  --------------------------------------------------------------------------------------------------------
    Electrostatics                -49.14455184 [mEh]     -30.83867187 [kcal/mol]    -129.02900309 [kJ/mol]
      Elst10,r                    -46.70537511 [mEh]     -29.30806536 [kcal/mol]    -122.62494545 [kJ/mol]
      Elst12,r                     -2.43917674 [mEh]      -1.53060651 [kcal/mol]      -6.40405764 [kJ/mol]

    Exchange                       48.73880994 [mEh]      30.58406498 [kcal/mol]     127.96372788 [kJ/mol]
      Exch10                       38.39826697 [mEh]      24.09527630 [kcal/mol]     100.81463603 [kJ/mol]
      Exch10(S^2)                  37.90143396 [mEh]      23.78350888 [kcal/mol]      99.51020115 [kJ/mol]
      Exch11(S^2)                   0.09532778 [mEh]       0.05981909 [kcal/mol]       0.25028305 [kJ/mol]
      Exch12(S^2)                  10.24521520 [mEh]       6.42896960 [kcal/mol]      26.89880880 [kJ/mol]

    Induction                     -16.99563658 [mEh]     -10.66492296 [kcal/mol]     -44.62203768 [kJ/mol]
      Ind20,r                     -27.08375653 [mEh]     -16.99531381 [kcal/mol]     -71.10839297 [kJ/mol]
      Ind22                        -7.64746362 [mEh]      -4.79885587 [kcal/mol]     -20.07841298 [kJ/mol]
      Exch-Ind20,r                 16.38767591 [mEh]      10.28342189 [kcal/mol]      43.02583718 [kJ/mol]
      Exch-Ind22                    4.62728113 [mEh]       2.90366274 [kcal/mol]      12.14892492 [kJ/mol]
      delta HF,r (2)               -3.27937346 [mEh]      -2.05783791 [kcal/mol]      -8.60999383 [kJ/mol]

    Dispersion                    -10.53648275 [mEh]      -6.61174275 [kcal/mol]     -27.66353165 [kJ/mol]
      Disp20                      -10.82754112 [mEh]      -6.79438463 [kcal/mol]     -28.42770530 [kJ/mol]
      Disp21                        0.29507261 [mEh]       0.18516086 [kcal/mol]       0.77471304 [kJ/mol]
      Disp22 (SDQ)                 -1.24989463 [mEh]      -0.78432072 [kcal/mol]      -3.28159790 [kJ/mol]
      Disp22 (T)                   -1.90549202 [mEh]      -1.19571429 [kcal/mol]      -5.00286861 [kJ/mol]
      Est. Disp22 (T)              -2.25928714 [mEh]      -1.41772408 [kcal/mol]      -5.93175756 [kJ/mol]
      Exch-Disp20                   3.50516753 [mEh]       2.19952583 [kcal/mol]       9.20281608 [kJ/mol]

  Total HF                        -22.28256222 [mEh]     -13.98251889 [kcal/mol]     -58.50285904 [kJ/mol]
  Total SAPT0                     -29.60493581 [mEh]     -18.57737769 [kcal/mol]     -77.72774826 [kJ/mol]
  Total SAPT2                     -24.72375207 [mEh]     -15.51438865 [kcal/mol]     -64.91220211 [kJ/mol]
  Total SAPT2+                    -27.93786122 [mEh]     -17.53127259 [kcal/mol]     -73.35084454 [kJ/mol]

  Special recipe for scaled SAPT0 (see Manual):
    Electrostatics sSAPT0         -46.70537511 [mEh]     -29.30806536 [kcal/mol]    -122.62494545 [kJ/mol]
    Exchange sSAPT0                38.39826697 [mEh]      24.09527630 [kcal/mol]     100.81463603 [kJ/mol]
    Induction sSAPT0              -13.32251305 [mEh]      -8.36000316 [kcal/mol]     -34.97825320 [kJ/mol]
    Dispersion sSAPT0              -7.18271574 [mEh]      -4.50722217 [kcal/mol]     -18.85821757 [kJ/mol]
  Total sSAPT0                    -28.81233693 [mEh]     -18.08001439 [kcal/mol]     -75.64678019 [kJ/mol]
  --------------------------------------------------------------------------------------------------------

*** Psi4 exiting successfully. Buy a developer a beer!
