                               Psi4 1.9 release

  ==> Input File <==

--------------------------------------------------------------------------
MEMORY 60 GB

molecule dimer {
0 1
O      0.000000     0.000000     0.000000
H      0.087658     0.953257    -0.023488
H      0.979839    -0.309825    -0.262547
--
-1 1
F      2.426389     0.000000     0.000000

units ang
no_reorient
no_com
symmetry c1
}

set {
basis        aug-cc-pVTZ
scf_type     df
}

energy("sapt2+")
--------------------------------------------------------------------------

  //              Dimer HF             //
    Molecular point group: c1
  Charge       = -1
  Multiplicity = 1
  Basis Set: AUG-CC-PVTZ
    Blend: AUG-CC-PVTZ
  Basis Set: (AUG-CC-PVTZ AUX)
    Blend: AUG-CC-PVTZ-JKFIT
  @DF-RHF Final Energy:  -175.53676069608289
    Total Energy =                       -175.5367606960828937
 Dipole X            :        -46.4240360           43.2841731           -3.1398629
 Dipole Y            :         -0.8479897            1.2159103            0.3679206
 Dipole Z            :          0.3911162           -0.5405278           -0.1494116
 Magnitude           :                                                    3.1648742
  //            Monomer A HF           //
    Molecular point group: c1
  Multiplicity = 1
  Basis Set: AUG-CC-PVTZ
    Blend: AUG-CC-PVTZ
  Basis Set: (AUG-CC-PVTZ AUX)
    Blend: AUG-CC-PVTZ-JKFIT
  @DF-RHF Final Energy:   -76.04860562733103
    Total Energy =                        -76.0486056273310282
  //            Monomer B HF           //
    Molecular point group: c1

    Geometry (in Angstrom), charge = -1, multiplicity = 1:

       Center              X                  Y                   Z               Mass
    ------------   -----------------  -----------------  -----------------  -----------------
      Gh(O)           0.000000000000     0.000000000000     0.000000000000    15.994914619570
      Gh(H)           0.087658000000     0.953257000000    -0.023488000000     1.007825032230
      Gh(H)           0.979839000000    -0.309825000000    -0.262547000000     1.007825032230
         F            2.426389000000     0.000000000000     0.000000000000    18.998403162730

  Charge       = -1
  Multiplicity = 1
  Basis Set: AUG-CC-PVTZ
    Blend: AUG-CC-PVTZ
  Basis Set: (AUG-CC-PVTZ AUX)
    Blend: AUG-CC-PVTZ-JKFIT

    Orbital Energies [Eh]
    ---------------------

    Doubly Occupied:

       1A    -25.833810     2A     -1.076022     3A     -0.181025
       4A     -0.180956     5A     -0.180941

  @DF-RHF Final Energy:   -99.45089976628913

   => Energetics <=

    Nuclear Repulsion Energy =              0.0000000000000000
    One-Electron Energy =                -143.9962895486584671
    Two-Electron Energy =                  44.5453897823693481
    Total Energy =                        -99.4508997662891261
 Dipole X            :        -45.8523371           41.2668962           -4.5854410
 Dipole Y            :          0.0003277            0.0000000            0.0003277
 Dipole Z            :          0.0005205            0.0000000            0.0005205
 Magnitude           :                                                    4.5854410

    SAPT Results
  --------------------------------------------------------------------------------------------------------
    Electrostatics                -65.63397249 [mEh]     -41.18593954 [kcal/mol]    -172.32197104 [kJ/mol]
      Elst10,r                    -64.38815346 [mEh]     -40.40417629 [kcal/mol]    -169.05107361 [kJ/mol]
      Elst12,r                     -1.24581904 [mEh]      -0.78176325 [kcal/mol]      -3.27089743 [kJ/mol]

    Exchange                       71.46258165 [mEh]      44.84344700 [kcal/mol]     187.62498227 [kJ/mol]
      Exch10                       59.12204103 [mEh]      37.09964086 [kcal/mol]     155.22489735 [kJ/mol]
      Exch10(S^2)                  57.55318492 [mEh]      36.11516879 [kcal/mol]     151.10586620 [kJ/mol]
      Exch11(S^2)                   0.49492987 [mEh]       0.31057319 [kcal/mol]       1.29943821 [kJ/mol]
      Exch12(S^2)                  11.84561074 [mEh]       7.43323296 [kcal/mol]      31.10064671 [kJ/mol]

    Induction                     -36.24437593 [mEh]     -22.74368927 [kcal/mol]     -95.15959590 [kJ/mol]
      Ind20,r                     -40.69563979 [mEh]     -25.53689951 [kcal/mol]    -106.84638754 [kJ/mol]
      Ind22                        -8.60335614 [mEh]      -5.39868749 [kcal/mol]     -22.58810844 [kJ/mol]
      Exch-Ind20,r                 20.56773743 [mEh]      12.90645009 [kcal/mol]      54.00058718 [kJ/mol]
      Exch-Ind22                    4.34817025 [mEh]       2.72851802 [kcal/mol]      11.41611942 [kJ/mol]
      delta HF,r (2)              -11.86128768 [mEh]      -7.44307039 [kcal/mol]     -31.14180652 [kJ/mol]

    Dispersion                    -13.22514522 [mEh]      -8.29890392 [kcal/mol]     -34.72261399 [kJ/mol]
      Disp20                      -14.24077285 [mEh]      -8.93621988 [kcal/mol]     -37.38914397 [kJ/mol]
      Disp21                        0.70775441 [mEh]       0.44412260 [kcal/mol]       1.85820896 [kJ/mol]
      Disp22 (SDQ)                 -1.41301346 [mEh]      -0.88667933 [kcal/mol]      -3.70986632 [kJ/mol]
      Disp22 (T)                   -2.48470292 [mEh]      -1.55917462 [kcal/mol]      -6.52358663 [kJ/mol]
      Est. Disp22 (T)              -2.86041849 [mEh]      -1.79493970 [kcal/mol]      -7.51002771 [kJ/mol]
      Exch-Disp20                   4.58130516 [mEh]       2.87481239 [kcal/mol]      12.02821505 [kJ/mol]

  Total HF                        -37.25530246 [mEh]     -23.37805524 [kcal/mol]     -97.81378314 [kJ/mol]
  Total SAPT0                     -46.91477015 [mEh]     -29.43946273 [kcal/mol]    -123.17471206 [kJ/mol]
  Total SAPT2                     -40.07523446 [mEh]     -25.14758929 [kcal/mol]    -105.21751359 [kJ/mol]
  Total SAPT2+                    -43.64091200 [mEh]     -27.38508572 [kcal/mol]    -114.57919866 [kJ/mol]

  Special recipe for scaled SAPT0 (see Manual):
    Electrostatics sSAPT0         -64.38815346 [mEh]     -40.40417629 [kcal/mol]    -169.05107361 [kJ/mol]
    Exchange sSAPT0                59.12204103 [mEh]      37.09964086 [kcal/mol]     155.22489735 [kJ/mol]
    Induction sSAPT0              -30.26094116 [mEh]     -18.98902726 [kcal/mol]     -79.45009006 [kJ/mol]
    Dispersion sSAPT0              -9.27451355 [mEh]      -5.81984512 [kcal/mol]     -24.35023198 [kJ/mol]
  Total sSAPT0                    -44.80156713 [mEh]     -28.11340782 [kcal/mol]    -117.62649831 [kJ/mol]
  --------------------------------------------------------------------------------------------------------

*** Psi4 exiting successfully. Buy a developer a beer!
