                               Psi4 1.9 release

  ==> Input File <==

--------------------------------------------------------------------------
MEMORY 60 GB

molecule dimer {
0 1
O      0.000000     0.000000     0.000000
H      0.322985     0.897287    -0.086544
H      0.868996    -0.561815    -0.232847
--
-1 1
F      2.426389     0.000000     0.000000

units ang
no_reorient
no_com
symmetry c1
}

set {
basis        aug-cc-pVTZ
scf_type     df
}

energy("sapt2+")
--------------------------------------------------------------------------

  //              Dimer HF             //
    Molecular point group: c1
  Charge       = -1
  Multiplicity = 1
  Basis Set: AUG-CC-PVTZ
    Blend: AUG-CC-PVTZ
  Basis Set: (AUG-CC-PVTZ AUX)
    Blend: AUG-CC-PVTZ-JKFIT
  @DF-RHF Final Energy:  -175.52787246689579
    Total Energy =                       -175.5278724668958148
 Dipole X            :        -46.7395785           43.5194138           -3.2201647
 Dipole Y            :         -0.4379576            0.6339502            0.1959926
 Dipole Z            :          0.4310099           -0.6035615           -0.1725516
 Magnitude           :                                                    3.2307349
  //            Monomer A HF           //
    Molecular point group: c1
  Multiplicity = 1
  Basis Set: AUG-CC-PVTZ
    Blend: AUG-CC-PVTZ
  Basis Set: (AUG-CC-PVTZ AUX)
    Blend: AUG-CC-PVTZ-JKFIT
  @DF-RHF Final Energy:   -76.04859749980980
    Total Energy =                        -76.0485974998098015
  //            Monomer B HF           //
    Molecular point group: c1

    Geometry (in Angstrom), charge = -1, multiplicity = 1:

       Center              X                  Y                   Z               Mass
    ------------   -----------------  -----------------  -----------------  -----------------
      Gh(O)           0.000000000000     0.000000000000     0.000000000000    15.994914619570
      Gh(H)           0.322985000000     0.897287000000    -0.086544000000     1.007825032230
      Gh(H)           0.868996000000    -0.561815000000    -0.232847000000     1.007825032230
         F            2.426389000000     0.000000000000     0.000000000000    18.998403162730

  Charge       = -1
  Multiplicity = 1
  Basis Set: AUG-CC-PVTZ
    Blend: AUG-CC-PVTZ
  Basis Set: (AUG-CC-PVTZ AUX)
    Blend: AUG-CC-PVTZ-JKFIT

    Orbital Energies [Eh]
    ---------------------

    Doubly Occupied:

       1A    -25.833799     2A     -1.076028     3A     -0.181024
       4A     -0.180958     5A     -0.180950

  @DF-RHF Final Energy:   -99.45089268304066

   => Energetics <=

    Nuclear Repulsion Energy =              0.0000000000000000
    One-Electron Energy =                -143.9962655450364934
    Two-Electron Energy =                  44.5453728619958227
    Total Energy =                        -99.4508926830406779
 Dipole X            :        -45.8529607           41.2668962           -4.5860645
 Dipole Y            :          0.0004969            0.0000000            0.0004969
 Dipole Z            :          0.0001999            0.0000000            0.0001999
 Magnitude           :                                                    4.5860646

    SAPT Results
  --------------------------------------------------------------------------------------------------------
    Electrostatics                -56.67166762 [mEh]     -35.56200833 [kcal/mol]    -148.79144284 [kJ/mol]
      Elst10,r                    -54.51501743 [mEh]     -34.20868990 [kcal/mol]    -143.12915855 [kJ/mol]
      Elst12,r                     -2.15665019 [mEh]      -1.35331843 [kcal/mol]      -5.66228429 [kJ/mol]

    Exchange                       58.26426996 [mEh]      36.56138138 [kcal/mol]     152.97281970 [kJ/mol]
      Exch10                       46.96883777 [mEh]      29.47339067 [kcal/mol]     123.31666658 [kJ/mol]
      Exch10(S^2)                  46.09160262 [mEh]      28.92291731 [kcal/mol]     121.01348601 [kJ/mol]
      Exch11(S^2)                   0.30366654 [mEh]       0.19055363 [kcal/mol]       0.79727638 [kJ/mol]
      Exch12(S^2)                  10.99176565 [mEh]       6.89743708 [kcal/mol]      28.85887674 [kJ/mol]

    Induction                     -24.37979375 [mEh]     -15.29855155 [kcal/mol]     -64.00913968 [kJ/mol]
      Ind20,r                     -32.51141386 [mEh]     -20.40122020 [kcal/mol]     -85.35870532 [kJ/mol]
      Ind22                        -8.04130726 [mEh]      -5.04599649 [kcal/mol]     -21.11244931 [kJ/mol]
      Exch-Ind20,r                 18.18409768 [mEh]      11.41069357 [kcal/mol]      47.74234188 [kJ/mol]
      Exch-Ind22                    4.49761789 [mEh]       2.82229784 [kcal/mol]      11.80849416 [kJ/mol]
      delta HF,r (2)               -6.50878821 [mEh]      -4.08432626 [kcal/mol]     -17.08882108 [kJ/mol]

    Dispersion                    -11.78197878 [mEh]      -7.39330331 [kcal/mol]     -30.93358103 [kJ/mol]
      Disp20                      -12.38365411 [mEh]      -7.77086027 [kcal/mol]     -32.51327938 [kJ/mol]
      Disp21                        0.45662532 [mEh]       0.28653672 [kcal/mol]       1.19886963 [kJ/mol]
      Disp22 (SDQ)                 -1.32466946 [mEh]      -0.83124263 [kcal/mol]      -3.47791918 [kJ/mol]
      Disp22 (T)                   -2.17672159 [mEh]      -1.36591342 [kcal/mol]      -5.71498175 [kJ/mol]
      Est. Disp22 (T)              -2.55619513 [mEh]      -1.60403666 [kcal/mol]      -6.71128940 [kJ/mol]
      Exch-Disp20                   4.02591459 [mEh]       2.52629955 [kcal/mol]      10.57003730 [kJ/mol]

  Total HF                        -28.38228405 [mEh]     -17.81015213 [kcal/mol]     -74.51767649 [kJ/mol]
  Total SAPT0                     -36.74002356 [mEh]     -23.05471285 [kcal/mol]     -96.46091857 [kJ/mol]
  Total SAPT2                     -31.14493093 [mEh]     -19.54373922 [kcal/mol]     -81.77100489 [kJ/mol]
  Total SAPT2+                    -34.56917020 [mEh]     -21.69248180 [kcal/mol]     -90.76134385 [kJ/mol]

  Special recipe for scaled SAPT0 (see Manual):
    Electrostatics sSAPT0         -54.51501743 [mEh]     -34.20868990 [kcal/mol]    -143.12915855 [kJ/mol]
    Exchange sSAPT0                46.96883777 [mEh]      29.47339067 [kcal/mol]     123.31666658 [kJ/mol]
    Induction sSAPT0              -19.77795572 [mEh]     -12.41085459 [kcal/mol]     -51.92701560 [kJ/mol]
    Dispersion sSAPT0              -8.12346800 [mEh]      -5.09755313 [kcal/mol]     -21.32816229 [kJ/mol]
  Total sSAPT0                    -35.44760338 [mEh]     -22.24370694 [kcal/mol]     -93.06766986 [kJ/mol]
  --------------------------------------------------------------------------------------------------------

*** Psi4 exiting successfully. Buy a developer a beer!
