                               Psi4 1.9 release

  ==> Input File <==

--------------------------------------------------------------------------
MEMORY 60 GB

molecule dimer {
0 1
O      0.000000     0.000000     0.000000
H     -0.753586     0.555220     0.201923
H      0.749093     0.723587    -0.200719
--
-1 1
F      2.426389     0.000000     0.000000

units ang
no_reorient
no_com
symmetry c1
}

set {
basis        aug-cc-pVTZ
scf_type     df
}

energy("sapt2+")
--------------------------------------------------------------------------

  //              Dimer HF             //
    Molecular point group: c1
  Charge       = -1
  Multiplicity = 1
  Basis Set: AUG-CC-PVTZ
    Blend: AUG-CC-PVTZ
  Basis Set: (AUG-CC-PVTZ AUX)
    Blend: AUG-CC-PVTZ-JKFIT
  @DF-RHF Final Energy:  -175.50537089082792
    Total Energy =                       -175.5053708908279191
 Dipole X            :        -45.3850393           41.2584056           -4.1266337
 Dipole Y            :         -1.6893419            2.4165950            0.7272531
 Dipole Z            :          0.0122040            0.0022752            0.0144792
 Magnitude           :                                                    4.1902520
  //            Monomer A HF           //
    Molecular point group: c1
  Multiplicity = 1
  Basis Set: AUG-CC-PVTZ
    Blend: AUG-CC-PVTZ
  Basis Set: (AUG-CC-PVTZ AUX)
    Blend: AUG-CC-PVTZ-JKFIT
  @DF-RHF Final Energy:   -76.04859784531423
    Total Energy =                        -76.0485978453142479
  //            Monomer B HF           //
    Molecular point group: c1

    Geometry (in Angstrom), charge = -1, multiplicity = 1:

       Center              X                  Y                   Z               Mass
    ------------   -----------------  -----------------  -----------------  -----------------
      Gh(O)           0.000000000000     0.000000000000     0.000000000000    15.994914619570
      Gh(H)          -0.753586000000     0.555220000000     0.201923000000     1.007825032230
      Gh(H)           0.749093000000     0.723587000000    -0.200719000000     1.007825032230
         F            2.426389000000     0.000000000000     0.000000000000    18.998403162730

  Charge       = -1
  Multiplicity = 1
  Basis Set: AUG-CC-PVTZ
    Blend: AUG-CC-PVTZ
  Basis Set: (AUG-CC-PVTZ AUX)
    Blend: AUG-CC-PVTZ-JKFIT

    Orbital Energies [Eh]
    ---------------------

    Doubly Occupied:

       1A    -25.833746     2A     -1.076004     3A     -0.180992
       4A     -0.180939     5A     -0.180934

  @DF-RHF Final Energy:   -99.45087684393668

   => Energetics <=

    Nuclear Repulsion Energy =              0.0000000000000000
    One-Electron Energy =                -143.9965255431591515
    Two-Electron Energy =                  44.5456486992224754
    Total Energy =                        -99.4508768439366690
 Dipole X            :        -45.8525324           41.2668962           -4.5856362
 Dipole Y            :          0.0000300            0.0000000            0.0000300
 Dipole Z            :          0.0001044            0.0000000            0.0001044
 Magnitude           :                                                    4.5856362

    SAPT Results
  --------------------------------------------------------------------------------------------------------
    Electrostatics                -24.91370911 [mEh]     -15.63358849 [kcal/mol]     -65.41093426 [kJ/mol]
      Elst10,r                    -21.16196147 [mEh]     -13.27933130 [kcal/mol]     -55.56072218 [kJ/mol]
      Elst12,r                     -3.75174764 [mEh]      -2.35425719 [kcal/mol]      -9.85021208 [kJ/mol]

    Exchange                       37.95381610 [mEh]      23.81637917 [kcal/mol]      99.64773044 [kJ/mol]
      Exch10                       30.29664286 [mEh]      19.01143042 [kcal/mol]      79.54382488 [kJ/mol]
      Exch10(S^2)                  29.93246729 [mEh]      18.78290680 [kcal/mol]      78.58768204 [kJ/mol]
      Exch11(S^2)                  -0.19656811 [mEh]      -0.12334835 [kcal/mol]      -0.51608951 [kJ/mol]
      Exch12(S^2)                   7.85374135 [mEh]       4.92829710 [kcal/mol]      20.61999507 [kJ/mol]

    Induction                     -17.76948653 [mEh]     -11.15052114 [kcal/mol]     -46.65378045 [kJ/mol]
      Ind20,r                     -23.51184893 [mEh]     -14.75390795 [kcal/mol]     -61.73035087 [kJ/mol]
      Ind22                        -5.86518131 [mEh]      -3.68045684 [kcal/mol]     -15.39903140 [kJ/mol]
      Exch-Ind20,r                 12.53356375 [mEh]       7.86492999 [kcal/mol]      32.90686709 [kJ/mol]
      Exch-Ind22                    3.12657775 [mEh]       1.96195716 [kcal/mol]       8.20882876 [kJ/mol]
      delta HF,r (2)               -4.05259779 [mEh]      -2.54304350 [kcal/mol]     -10.64009402 [kJ/mol]

    Dispersion                     -8.61724852 [mEh]      -5.40740509 [kcal/mol]     -22.62458288 [kJ/mol]
      Disp20                       -8.94465816 [mEh]      -5.61285773 [kcal/mol]     -23.48419676 [kJ/mol]
      Disp21                        0.33773316 [mEh]       0.21193076 [kcal/mol]       0.88671830 [kJ/mol]
      Disp22 (SDQ)                 -0.89588074 [mEh]      -0.56217365 [kcal/mol]      -2.35213455 [kJ/mol]
      Disp22 (T)                   -1.52435804 [mEh]      -0.95654911 [kcal/mol]      -4.00220150 [kJ/mol]
      Est. Disp22 (T)              -1.81157957 [mEh]      -1.13678334 [kcal/mol]      -4.75630151 [kJ/mol]
      Exch-Disp20                   2.69713677 [mEh]       1.69247888 [kcal/mol]       7.08133163 [kJ/mol]

  Total HF                         -5.89620158 [mEh]      -3.69992235 [kcal/mol]     -15.48047511 [kJ/mol]
  Total SAPT0                     -12.14372296 [mEh]      -7.62030120 [kcal/mol]     -31.88334024 [kJ/mol]
  Total SAPT2                     -10.97690092 [mEh]      -6.88810932 [kcal/mol]     -28.81984940 [kJ/mol]
  Total SAPT2+                    -13.34662807 [mEh]      -8.37513555 [kcal/mol]     -35.04156716 [kJ/mol]

  Special recipe for scaled SAPT0 (see Manual):
    Electrostatics sSAPT0         -21.16196147 [mEh]     -13.27933130 [kcal/mol]     -55.56072218 [kJ/mol]
    Exchange sSAPT0                30.29664286 [mEh]      19.01143042 [kcal/mol]      79.54382488 [kJ/mol]
    Induction sSAPT0              -14.56782295 [mEh]      -9.14144692 [kcal/mol]     -38.24781390 [kJ/mol]
    Dispersion sSAPT0              -6.14787405 [mEh]      -3.85784921 [kcal/mol]     -16.14124109 [kJ/mol]
  Total sSAPT0                    -11.58101561 [mEh]      -7.26719701 [kcal/mol]     -30.40595229 [kJ/mol]
  --------------------------------------------------------------------------------------------------------

*** Psi4 exiting successfully. Buy a developer a beer!
