                               Psi4 1.9 release

  ==> Input File <==

--------------------------------------------------------------------------
MEMORY 60 GB

molecule dimer {
0 1
O      0.000000     0.000000     0.000000
H      0.536302     0.780169    -0.143702
H      0.698932    -0.775519    -0.187278
--
-1 1
F      2.426389     0.000000     0.000000

units ang
no_reorient
no_com
symmetry c1
}

set {
basis        aug-cc-pVTZ
scf_type     df
}

energy("sapt2+")
--------------------------------------------------------------------------

  //              Dimer HF             //
    Molecular point group: c1
  Charge       = -1
  Multiplicity = 1
  Basis Set: AUG-CC-PVTZ
    Blend: AUG-CC-PVTZ
  Basis Set: (AUG-CC-PVTZ AUX)
    Blend: AUG-CC-PVTZ-JKFIT
  @DF-RHF Final Energy:  -175.52187918871101
    Total Energy =                       -175.5218791887110115
 Dipole X            :        -46.9095520           43.6011501           -3.3084019
 Dipole Y            :         -0.0021717            0.0087872            0.0066156
 Dipole Z            :          0.4441272           -0.6254616           -0.1813344
 Magnitude           :                                                    3.3133743
  //            Monomer A HF           //
    Molecular point group: c1
  Multiplicity = 1
  Basis Set: AUG-CC-PVTZ
    Blend: AUG-CC-PVTZ
  Basis Set: (AUG-CC-PVTZ AUX)
    Blend: AUG-CC-PVTZ-JKFIT
  @DF-RHF Final Energy:   -76.04859480162550
    Total Energy =                        -76.0485948016254838
  //            Monomer B HF           //
    Molecular point group: c1

    Geometry (in Angstrom), charge = -1, multiplicity = 1:

       Center              X                  Y                   Z               Mass
    ------------   -----------------  -----------------  -----------------  -----------------
      Gh(O)           0.000000000000     0.000000000000     0.000000000000    15.994914619570
      Gh(H)           0.536302000000     0.780169000000    -0.143702000000     1.007825032230
      Gh(H)           0.698932000000    -0.775519000000    -0.187278000000     1.007825032230
         F            2.426389000000     0.000000000000     0.000000000000    18.998403162730

  Charge       = -1
  Multiplicity = 1
  Basis Set: AUG-CC-PVTZ
    Blend: AUG-CC-PVTZ
  Basis Set: (AUG-CC-PVTZ AUX)
    Blend: AUG-CC-PVTZ-JKFIT

    Orbital Energies [Eh]
    ---------------------

    Doubly Occupied:

       1A    -25.833754     2A     -1.076028     3A     -0.181024
       4A     -0.180954     5A     -0.180952

  @DF-RHF Final Energy:   -99.45089062971986

   => Energetics <=

    Nuclear Repulsion Energy =              0.0000000000000000
    One-Electron Energy =                -143.9963578747392887
    Two-Electron Energy =                  44.5454672450194309
    Total Energy =                        -99.4508906297198507
 Dipole X            :        -45.8530778           41.2668962           -4.5861816
 Dipole Y            :          0.0001183            0.0000000            0.0001183
 Dipole Z            :         -0.0000054            0.0000000           -0.0000054
 Magnitude           :                                                    4.5861816

    SAPT Results
  --------------------------------------------------------------------------------------------------------
    Electrostatics                -49.73927618 [mEh]     -31.21186702 [kcal/mol]    -130.59045163 [kJ/mol]
      Elst10,r                    -47.14294482 [mEh]     -29.58264450 [kcal/mol]    -123.77378458 [kJ/mol]
      Elst12,r                     -2.59633136 [mEh]      -1.62922253 [kcal/mol]      -6.81666705 [kJ/mol]

    Exchange                       49.31627797 [mEh]      30.94643164 [kcal/mol]     129.47986997 [kJ/mol]
      Exch10                       38.84669460 [mEh]      24.37666888 [kcal/mol]     101.99198261 [kJ/mol]
      Exch10(S^2)                  38.34098484 [mEh]      24.05933122 [kcal/mol]     100.66424184 [kJ/mol]
      Exch11(S^2)                   0.15654511 [mEh]       0.09823354 [kcal/mol]       0.41100912 [kJ/mol]
      Exch12(S^2)                  10.31303827 [mEh]       6.47152922 [kcal/mol]      27.07687824 [kJ/mol]

    Induction                     -17.13100110 [mEh]     -10.74986548 [kcal/mol]     -44.97743718 [kJ/mol]
      Ind20,r                     -27.31819206 [mEh]     -17.14242432 [kcal/mol]     -71.72390337 [kJ/mol]
      Ind22                        -7.67717299 [mEh]      -4.81749879 [kcal/mol]     -20.15641492 [kJ/mol]
      Exch-Ind20,r                 16.52391002 [mEh]      10.36891008 [kcal/mol]      43.38351979 [kJ/mol]
      Exch-Ind22                    4.64367904 [mEh]       2.91395259 [kcal/mol]      12.19197763 [kJ/mol]
      delta HF,r (2)               -3.30322510 [mEh]      -2.07280505 [kcal/mol]      -8.67261631 [kJ/mol]

    Dispersion                    -10.72049101 [mEh]      -6.72720967 [kcal/mol]     -28.14664527 [kJ/mol]
      Disp20                      -11.03527802 [mEh]      -6.92474150 [kcal/mol]     -28.97311844 [kJ/mol]
      Disp21                        0.30607293 [mEh]       0.19206366 [kcal/mol]       0.80359436 [kJ/mol]
      Disp22 (SDQ)                 -1.26122815 [mEh]      -0.79143261 [kcal/mol]      -3.31135404 [kJ/mol]
      Disp22 (T)                   -1.95023998 [mEh]      -1.22379406 [kcal/mol]      -5.12035436 [kJ/mol]
      Est. Disp22 (T)              -2.31716791 [mEh]      -1.45404482 [kcal/mol]      -6.08372352 [kJ/mol]
      Exch-Disp20                   3.58711014 [mEh]       2.25094560 [kcal/mol]       9.41795637 [kJ/mol]

  Total HF                        -22.39375737 [mEh]     -14.05229490 [kcal/mol]     -58.79480186 [kJ/mol]
  Total SAPT0                     -29.84192525 [mEh]     -18.72609081 [kcal/mol]     -78.34996394 [kJ/mol]
  Total SAPT2                     -25.00216719 [mEh]     -15.68909678 [kcal/mol]     -65.64318091 [kJ/mol]
  Total SAPT2+                    -28.27449032 [mEh]     -17.74251054 [kcal/mol]     -74.23466411 [kJ/mol]

  Special recipe for scaled SAPT0 (see Manual):
    Electrostatics sSAPT0         -47.14294482 [mEh]     -29.58264450 [kcal/mol]    -123.77378458 [kJ/mol]
    Exchange sSAPT0                38.84669460 [mEh]      24.37666888 [kcal/mol]     101.99198261 [kJ/mol]
    Induction sSAPT0              -13.43500421 [mEh]      -8.43059242 [kcal/mol]     -35.27359868 [kJ/mol]
    Dispersion sSAPT0              -7.30434774 [mEh]      -4.58354741 [kcal/mol]     -19.17756236 [kJ/mol]
  Total sSAPT0                    -29.03560218 [mEh]     -18.22011544 [kcal/mol]     -76.23296301 [kJ/mol]
  --------------------------------------------------------------------------------------------------------

*** Psi4 exiting successfully. Buy a developer a beer!
