                               Psi4 1.9 release

  ==> Input File <==

--------------------------------------------------------------------------
MEMORY 60 GB

molecule dimer {
0 1
O      0.000000     0.000000     0.000000
H     -0.866713     0.334379     0.232235
H      0.542672     0.899651    -0.145409
--
-1 1
F      2.426389     0.000000     0.000000

units ang
no_reorient
no_com
symmetry c1
}

set {
basis        aug-cc-pVTZ
scf_type     df
}

energy("sapt2+")
--------------------------------------------------------------------------

  //              Dimer HF             //
    Molecular point group: c1
  Charge       = -1
  Multiplicity = 1
  Basis Set: AUG-CC-PVTZ
    Blend: AUG-CC-PVTZ
  Basis Set: (AUG-CC-PVTZ AUX)
    Blend: AUG-CC-PVTZ-JKFIT
  @DF-RHF Final Energy:  -175.49232720895174
    Total Energy =                       -175.4923272089517354
 Dipole X            :        -45.1100023           40.6545474           -4.4554549
 Dipole Y            :         -1.6316393            2.3319787            0.7003395
 Dipole Z            :         -0.1012144            0.1640774            0.0628629
 Magnitude           :                                                    4.5105993
  //            Monomer A HF           //
    Molecular point group: c1
  Multiplicity = 1
  Basis Set: AUG-CC-PVTZ
    Blend: AUG-CC-PVTZ
  Basis Set: (AUG-CC-PVTZ AUX)
    Blend: AUG-CC-PVTZ-JKFIT
  @DF-RHF Final Energy:   -76.04859957957268
    Total Energy =                        -76.0485995795726808
  //            Monomer B HF           //
    Molecular point group: c1

    Geometry (in Angstrom), charge = -1, multiplicity = 1:

       Center              X                  Y                   Z               Mass
    ------------   -----------------  -----------------  -----------------  -----------------
      Gh(O)           0.000000000000     0.000000000000     0.000000000000    15.994914619570
      Gh(H)          -0.866713000000     0.334379000000     0.232235000000     1.007825032230
      Gh(H)           0.542672000000     0.899651000000    -0.145409000000     1.007825032230
         F            2.426389000000     0.000000000000     0.000000000000    18.998403162730

  Charge       = -1
  Multiplicity = 1
  Basis Set: AUG-CC-PVTZ
    Blend: AUG-CC-PVTZ
  Basis Set: (AUG-CC-PVTZ AUX)
    Blend: AUG-CC-PVTZ-JKFIT

    Orbital Energies [Eh]
    ---------------------

    Doubly Occupied:

       1A    -25.833731     2A     -1.076010     3A     -0.180995
       4A     -0.180942     5A     -0.180938

  @DF-RHF Final Energy:   -99.45087091035911

   => Energetics <=

    Nuclear Repulsion Energy =              0.0000000000000000
    One-Electron Energy =                -143.9965113638529601
    Two-Electron Energy =                  44.5456404534938457
    Total Energy =                        -99.4508709103591144
 Dipole X            :        -45.8524314           41.2668962           -4.5855353
 Dipole Y            :         -0.0000482            0.0000000           -0.0000482
 Dipole Z            :          0.0000222            0.0000000            0.0000222
 Magnitude           :                                                    4.5855353

    SAPT Results
  --------------------------------------------------------------------------------------------------------
    Electrostatics                 -9.61844801 [mEh]      -6.03566725 [kcal/mol]     -25.25323177 [kJ/mol]
      Elst10,r                     -4.98798469 [mEh]      -3.13000765 [kcal/mol]     -13.09595199 [kJ/mol]
      Elst12,r                     -4.63046333 [mEh]      -2.90565960 [kcal/mol]     -12.15727979 [kJ/mol]

    Exchange                       29.03661050 [mEh]      18.22074818 [kcal/mol]      76.23561037 [kJ/mol]
      Exch10                       22.49147207 [mEh]      14.11361180 [kcal/mol]      59.05135179 [kJ/mol]
      Exch10(S^2)                  22.31307792 [mEh]      14.00166778 [kcal/mol]      58.58297800 [kJ/mol]
      Exch11(S^2)                  -0.36166469 [mEh]      -0.22694802 [kcal/mol]      -0.94955052 [kJ/mol]
      Exch12(S^2)                   6.90680312 [mEh]       4.33408439 [kcal/mol]      18.13380910 [kJ/mol]

    Induction                     -12.70033249 [mEh]      -7.96957896 [kcal/mol]     -33.34471837 [kJ/mol]
      Ind20,r                     -18.89145474 [mEh]     -11.85456682 [kcal/mol]     -49.59950759 [kJ/mol]
      Ind22                        -5.39427862 [mEh]      -3.38496094 [kcal/mol]     -14.16267658 [kJ/mol]
      Exch-Ind20,r                 10.69603342 [mEh]       6.71186230 [kcal/mol]      28.08243187 [kJ/mol]
      Exch-Ind22                    3.05415254 [mEh]       1.91650965 [kcal/mol]       8.01867638 [kJ/mol]
      delta HF,r (2)               -2.16478508 [mEh]      -1.35842315 [kcal/mol]      -5.68364245 [kJ/mol]

    Dispersion                     -7.20399484 [mEh]      -4.52057501 [kcal/mol]     -18.91408585 [kJ/mol]
      Disp20                       -7.37205723 [mEh]      -4.62603575 [kcal/mol]     -19.35533359 [kJ/mol]
      Disp21                        0.30984717 [mEh]       0.19443203 [kcal/mol]       0.81350363 [kJ/mol]
      Disp22 (SDQ)                 -0.83502777 [mEh]      -0.52398784 [kcal/mol]      -2.19236512 [kJ/mol]
      Disp22 (T)                   -1.27040931 [mEh]      -0.79719388 [kcal/mol]      -3.33545919 [kJ/mol]
      Est. Disp22 (T)              -1.51492880 [mEh]      -0.95063217 [kcal/mol]      -3.97744500 [kJ/mol]
      Exch-Disp20                   2.20817179 [mEh]       1.38564872 [kcal/mol]       5.79755424 [kJ/mol]

  Total HF                          7.14328098 [mEh]       4.48247649 [kcal/mol]      18.75468163 [kJ/mol]
  Total SAPT0                       1.97939554 [mEh]       1.24208945 [kcal/mol]       5.19690228 [kJ/mol]
  Total SAPT2                       1.55394456 [mEh]       0.97511493 [kcal/mol]       4.07988088 [kJ/mol]
  Total SAPT2+                     -0.48616484 [mEh]      -0.30507304 [kcal/mol]      -1.27642562 [kJ/mol]

  Special recipe for scaled SAPT0 (see Manual):
    Electrostatics sSAPT0          -4.98798469 [mEh]      -3.13000765 [kcal/mol]     -13.09595199 [kJ/mol]
    Exchange sSAPT0                22.49147207 [mEh]      14.11361180 [kcal/mol]      59.05135179 [kJ/mol]
    Induction sSAPT0              -10.10160390 [mEh]      -6.33885215 [kcal/mol]     -26.52175739 [kJ/mol]
    Dispersion sSAPT0              -5.11049754 [mEh]      -3.20688562 [kcal/mol]     -13.41760944 [kJ/mol]
  Total sSAPT0                      2.29138594 [mEh]       1.43786639 [kcal/mol]       6.01603297 [kJ/mol]
  --------------------------------------------------------------------------------------------------------

*** Psi4 exiting successfully. Buy a developer a beer!
