                               Psi4 1.9 release

  ==> Input File <==

--------------------------------------------------------------------------
MEMORY 60 GB

molecule dimer {
0 1
O      0.000000     0.000000     0.000000
H     -0.384474     0.870919     0.103019
H      0.998200     0.238886    -0.267467
--
-1 1
F      2.426389     0.000000     0.000000

units ang
no_reorient
no_com
symmetry c1
}

set {
basis        aug-cc-pVTZ
scf_type     df
}

energy("sapt2+")
--------------------------------------------------------------------------

  //              Dimer HF             //
    Molecular point group: c1
  Charge       = -1
  Multiplicity = 1
  Basis Set: AUG-CC-PVTZ
    Blend: AUG-CC-PVTZ
  Basis Set: (AUG-CC-PVTZ AUX)
    Blend: AUG-CC-PVTZ-JKFIT
  @DF-RHF Final Energy:  -175.53504798061718
    Total Energy =                       -175.5350479806171506
 Dipole X            :        -45.8189746           42.4266702           -3.3923043
 Dipole Y            :         -1.4732688            2.0972275            0.6239587
 Dipole Z            :          0.2328645           -0.3107617           -0.0778971
 Magnitude           :                                                    3.4500900
  //            Monomer A HF           //
    Molecular point group: c1
  Multiplicity = 1
  Basis Set: AUG-CC-PVTZ
    Blend: AUG-CC-PVTZ
  Basis Set: (AUG-CC-PVTZ AUX)
    Blend: AUG-CC-PVTZ-JKFIT
  @DF-RHF Final Energy:   -76.04860785648260
    Total Energy =                        -76.0486078564826045
  //            Monomer B HF           //
    Molecular point group: c1

    Geometry (in Angstrom), charge = -1, multiplicity = 1:

       Center              X                  Y                   Z               Mass
    ------------   -----------------  -----------------  -----------------  -----------------
      Gh(O)           0.000000000000     0.000000000000     0.000000000000    15.994914619570
      Gh(H)          -0.384474000000     0.870919000000     0.103019000000     1.007825032230
      Gh(H)           0.998200000000     0.238886000000    -0.267467000000     1.007825032230
         F            2.426389000000     0.000000000000     0.000000000000    18.998403162730

  Charge       = -1
  Multiplicity = 1
  Basis Set: AUG-CC-PVTZ
    Blend: AUG-CC-PVTZ
  Basis Set: (AUG-CC-PVTZ AUX)
    Blend: AUG-CC-PVTZ-JKFIT

    Orbital Energies [Eh]
    ---------------------

    Doubly Occupied:

       1A    -25.833780     2A     -1.075998     3A     -0.181003
       4A     -0.180933     5A     -0.180931

  @DF-RHF Final Energy:   -99.45090056764761

   => Energetics <=

    Nuclear Repulsion Energy =              0.0000000000000000
    One-Electron Energy =                -143.9965088027732065
    Two-Electron Energy =                  44.5456082351255986
    Total Energy =                        -99.4509005676476079
 Dipole X            :        -45.8518771           41.2668962           -4.5849809
 Dipole Y            :         -0.0001171            0.0000000           -0.0001171
 Dipole Z            :          0.0003682            0.0000000            0.0003682
 Magnitude           :                                                    4.5849809

    SAPT Results
  --------------------------------------------------------------------------------------------------------
    Electrostatics                -60.01197100 [mEh]     -37.65808035 [kcal/mol]    -157.56140816 [kJ/mol]
      Elst10,r                    -58.92670891 [mEh]     -36.97706810 [kcal/mol]    -154.71205293 [kJ/mol]
      Elst12,r                     -1.08526210 [mEh]      -0.68101225 [kcal/mol]      -2.84935524 [kJ/mol]

    Exchange                       69.74841439 [mEh]      43.76779081 [kcal/mol]     183.12443675 [kJ/mol]
      Exch10                       58.42606381 [mEh]      36.66290856 [kcal/mol]     153.39760940 [kJ/mol]
      Exch10(S^2)                  56.83419221 [mEh]      35.66399405 [kcal/mol]     149.21815110 [kJ/mol]
      Exch11(S^2)                   0.38853116 [mEh]       0.24380698 [kcal/mol]       1.02008842 [kJ/mol]
      Exch12(S^2)                  10.93381942 [mEh]       6.86107527 [kcal/mol]      28.70673892 [kJ/mol]

    Induction                     -39.19138323 [mEh]     -24.59296427 [kcal/mol]    -102.89696249 [kJ/mol]
      Ind20,r                     -40.94948511 [mEh]     -25.69618985 [kcal/mol]    -107.51285835 [kJ/mol]
      Ind22                        -7.81612122 [mEh]      -4.90469012 [kcal/mol]     -20.52122344 [kJ/mol]
      Exch-Ind20,r                 19.19424631 [mEh]      12.04457140 [kcal/mol]      50.39448674 [kJ/mol]
      Exch-Ind22                    3.66364938 [mEh]       2.29897470 [kcal/mol]       9.61891013 [kJ/mol]
      delta HF,r (2)              -13.28367259 [mEh]      -8.33563040 [kcal/mol]     -34.87627757 [kJ/mol]

    Dispersion                    -12.78769592 [mEh]      -8.02440034 [kcal/mol]     -33.57409102 [kJ/mol]
      Disp20                      -13.87158727 [mEh]      -8.70455243 [kcal/mol]     -36.41984736 [kJ/mol]
      Disp21                        0.72924077 [mEh]       0.45760549 [kcal/mol]       1.91462138 [kJ/mol]
      Disp22 (SDQ)                 -1.24595656 [mEh]      -0.78184955 [kcal/mol]      -3.27125850 [kJ/mol]
      Disp22 (T)                   -2.34631205 [mEh]      -1.47233304 [kcal/mol]      -6.16024143 [kJ/mol]
      Est. Disp22 (T)              -2.72183455 [mEh]      -1.70797697 [kcal/mol]      -7.14617562 [kJ/mol]
      Exch-Disp20                   4.32244169 [mEh]       2.71237311 [kcal/mol]      11.34856908 [kJ/mol]

  Total HF                        -35.53955649 [mEh]     -22.30140839 [kcal/mol]     -93.30909270 [kJ/mol]
  Total SAPT0                     -45.08870207 [mEh]     -28.29358771 [kcal/mol]    -118.38037098 [kJ/mol]
  Total SAPT2                     -39.00408543 [mEh]     -24.47543312 [kcal/mol]    -102.40521218 [kJ/mol]
  Total SAPT2+                    -42.24263576 [mEh]     -26.50765414 [kcal/mol]    -110.90802492 [kJ/mol]

  Special recipe for scaled SAPT0 (see Manual):
    Electrostatics sSAPT0         -58.92670891 [mEh]     -36.97706810 [kcal/mol]    -154.71205293 [kJ/mol]
    Exchange sSAPT0                58.42606381 [mEh]      36.66290856 [kcal/mol]     153.39760940 [kJ/mol]
    Induction sSAPT0              -33.38047790 [mEh]     -20.94656612 [kcal/mol]     -87.64043266 [kJ/mol]
    Dispersion sSAPT0              -9.17567523 [mEh]      -5.75782313 [kcal/mol]     -24.09073199 [kJ/mol]
  Total sSAPT0                    -43.05679823 [mEh]     -27.01854880 [kcal/mol]    -113.04560817 [kJ/mol]
  --------------------------------------------------------------------------------------------------------

*** Psi4 exiting successfully. Buy a developer a beer!
