                               Psi4 1.9 release

  ==> Input File <==

--------------------------------------------------------------------------
MEMORY 60 GB

molecule dimer {
0 1
O      0.000000     0.000000     0.000000
H     -0.523226     0.790235     0.140198
H      0.875708     0.393609    -0.234645
--
-1 1
Cl     3.070352     0.000000     0.000000

units ang
no_reorient
no_com
symmetry c1
}

set {
basis        aug-cc-pVTZ
scf_type     df
}

energy("sapt2+")
--------------------------------------------------------------------------

  //              Dimer HF             //
    Molecular point group: c1
  Charge       = -1
  Multiplicity = 1
  Basis Set: AUG-CC-PVTZ
    Blend: AUG-CC-PVTZ
  Basis Set: (AUG-CC-PVTZ AUX)
    Blend: AUG-CC-PVTZ-JKFIT
  @DF-RHF Final Energy:  -535.64190822154546
    Total Energy =                       -535.6419082215454637
 Dipole X            :       -104.4594795           99.3022091           -5.1572704
 Dipole Y            :         -1.5844884            2.2371409            0.6526526
 Dipole Z            :          0.1598778           -0.1784790           -0.0186012
 Magnitude           :                                                    5.1984363
  //            Monomer A HF           //
    Molecular point group: c1
  Multiplicity = 1
  Basis Set: AUG-CC-PVTZ
    Blend: AUG-CC-PVTZ
  Basis Set: (AUG-CC-PVTZ AUX)
    Blend: AUG-CC-PVTZ-JKFIT
  @DF-RHF Final Energy:   -76.05823114993596
    Total Energy =                        -76.0582311499359633
  //            Monomer B HF           //
    Molecular point group: c1

    Geometry (in Angstrom), charge = -1, multiplicity = 1:

       Center              X                  Y                   Z               Mass
    ------------   -----------------  -----------------  -----------------  -----------------
      Gh(O)           0.000000000000     0.000000000000     0.000000000000    15.994914619570
      Gh(H)          -0.523226000000     0.790235000000     0.140198000000     1.007825032230
      Gh(H)           0.875708000000     0.393609000000    -0.234645000000     1.007825032230
         CL           3.070352000000     0.000000000000     0.000000000000    34.968852682000

  Charge       = -1
  Multiplicity = 1
  Basis Set: AUG-CC-PVTZ
    Blend: AUG-CC-PVTZ
  Basis Set: (AUG-CC-PVTZ AUX)
    Blend: AUG-CC-PVTZ-JKFIT

    Orbital Energies [Eh]
    ---------------------

    Doubly Occupied:

       1A   -104.506280     2A    -10.229817     3A     -7.695874
       4A     -7.695873     5A     -7.695833     6A     -0.733503
       7A     -0.150337     8A     -0.150330     9A     -0.150329

  @DF-RHF Final Energy:  -459.57350497405650

   => Energetics <=

    Nuclear Repulsion Energy =              0.0000000000000000
    One-Electron Energy =                -641.1306594998893615
    Two-Electron Energy =                 181.5571545258328570
    Total Energy =                       -459.5735049740565046
 Dipole X            :       -104.4386366           98.6361146           -5.8025219
 Dipole Y            :         -0.0000266            0.0000000           -0.0000266
 Dipole Z            :         -0.0000783            0.0000000           -0.0000783
 Magnitude           :                                                    5.8025219

    SAPT Results
  --------------------------------------------------------------------------------------------------------
    Electrostatics                -21.26232060 [mEh]     -13.34230761 [kcal/mol]     -55.82421504 [kJ/mol]
      Elst10,r                    -20.56152760 [mEh]     -12.90255337 [kcal/mol]     -53.98428329 [kJ/mol]
      Elst12,r                     -0.70079299 [mEh]      -0.43975424 [kcal/mol]      -1.83993175 [kJ/mol]

    Exchange                       21.64245263 [mEh]      13.58084406 [kcal/mol]      56.82225156 [kJ/mol]
      Exch10                       19.59823516 [mEh]      12.29807823 [kcal/mol]      51.45515932 [kJ/mol]
      Exch10(S^2)                  19.35964128 [mEh]      12.14835831 [kcal/mol]      50.82873117 [kJ/mol]
      Exch11(S^2)                   0.56130168 [mEh]       0.35222212 [kcal/mol]       1.47369737 [kJ/mol]
      Exch12(S^2)                   1.48291579 [mEh]       0.93054371 [kcal/mol]       3.89339487 [kJ/mol]

    Induction                      -9.88832285 [mEh]      -6.20501627 [kcal/mol]     -25.96178805 [kJ/mol]
      Ind20,r                     -16.10617156 [mEh]     -10.10677524 [kcal/mol]     -42.28674760 [kJ/mol]
      Ind22                        -1.81491587 [mEh]      -1.13887690 [kcal/mol]      -4.76506095 [kJ/mol]
      Exch-Ind20,r                 10.07590346 [mEh]       6.32272488 [kcal/mol]      26.45428089 [kJ/mol]
      Exch-Ind22                    1.13539813 [mEh]       0.71247308 [kcal/mol]       2.98098738 [kJ/mol]
      delta HF,r (2)               -3.17853701 [mEh]      -1.99456208 [kcal/mol]      -8.34524776 [kJ/mol]

    Dispersion                     -6.41870639 [mEh]      -4.02779907 [kcal/mol]     -16.85231130 [kJ/mol]
      Disp20                       -7.56402199 [mEh]      -4.74649546 [kcal/mol]     -19.85933700 [kJ/mol]
      Disp21                        0.48334091 [mEh]       0.30330100 [kcal/mol]       1.26901139 [kJ/mol]
      Disp22 (SDQ)                  0.06690652 [mEh]       0.04198447 [kcal/mol]       0.17566303 [kJ/mol]
      Disp22 (T)                   -1.14014925 [mEh]      -0.71545445 [kcal/mol]      -2.99346143 [kJ/mol]
      Est. Disp22 (T)              -1.30985503 [mEh]      -0.82194644 [kcal/mol]      -3.43902391 [kJ/mol]
      Exch-Disp20                   1.90492321 [mEh]       1.19535736 [kcal/mol]       5.00137519 [kJ/mol]

  Total HF                        -10.17209755 [mEh]      -6.38308758 [kcal/mol]     -26.70683845 [kJ/mol]
  Total SAPT0                     -15.83119634 [mEh]      -9.93422568 [kcal/mol]     -41.56480026 [kJ/mol]
  Total SAPT2                     -15.16728959 [mEh]      -9.51761791 [kcal/mol]     -39.82171334 [kJ/mol]
  Total SAPT2+                    -15.92689720 [mEh]      -9.99427888 [kcal/mol]     -41.81606283 [kJ/mol]

  Special recipe for scaled SAPT0 (see Manual):
    Electrostatics sSAPT0         -20.56152760 [mEh]     -12.90255337 [kcal/mol]     -53.98428329 [kJ/mol]
    Exchange sSAPT0                19.59823516 [mEh]      12.29807823 [kcal/mol]      51.45515932 [kJ/mol]
    Induction sSAPT0               -8.83165987 [mEh]      -5.54195024 [kcal/mol]     -23.18751979 [kJ/mol]
    Dispersion sSAPT0              -5.58779672 [mEh]      -3.50639538 [kcal/mol]     -14.67075827 [kJ/mol]
  Total sSAPT0                    -15.38274903 [mEh]      -9.65282075 [kcal/mol]     -40.38740202 [kJ/mol]
  --------------------------------------------------------------------------------------------------------

*** Psi4 exiting successfully. Buy a developer a beer!
