                               Psi4 1.9 release

  ==> Input File <==

--------------------------------------------------------------------------
MEMORY 60 GB

molecule dimer {
0 1
O      0.000000     0.000000     0.000000
H     -0.071473     0.955205     0.019151
H      0.948484    -0.112425    -0.254146
--
-1 1
Cl     3.070352     0.000000     0.000000

units ang
no_reorient
no_com
symmetry c1
}

set {
basis        aug-cc-pVTZ
scf_type     df
}

energy("sapt2+")
--------------------------------------------------------------------------

  //              Dimer HF             //
    Molecular point group: c1
  Charge       = -1
  Multiplicity = 1
  Basis Set: AUG-CC-PVTZ
    Blend: AUG-CC-PVTZ
  Basis Set: (AUG-CC-PVTZ AUX)
    Blend: AUG-CC-PVTZ-JKFIT
  @DF-RHF Final Energy:  -535.64902543053290
    Total Energy =                       -535.6490254305329017
 Dipole X            :       -105.0180658          100.2934252           -4.7246406
 Dipole Y            :         -1.0940110            1.5926234            0.4986124
 Dipole Z            :          0.3470853           -0.4440762           -0.0969909
 Magnitude           :                                                    4.7518681
  //            Monomer A HF           //
    Molecular point group: c1
  Multiplicity = 1
  Basis Set: AUG-CC-PVTZ
    Blend: AUG-CC-PVTZ
  Basis Set: (AUG-CC-PVTZ AUX)
    Blend: AUG-CC-PVTZ-JKFIT
  @DF-RHF Final Energy:   -76.05823936359657
    Total Energy =                        -76.0582393635965559
  //            Monomer B HF           //
    Molecular point group: c1

    Geometry (in Angstrom), charge = -1, multiplicity = 1:

       Center              X                  Y                   Z               Mass
    ------------   -----------------  -----------------  -----------------  -----------------
      Gh(O)           0.000000000000     0.000000000000     0.000000000000    15.994914619570
      Gh(H)          -0.071473000000     0.955205000000     0.019151000000     1.007825032230
      Gh(H)           0.948484000000    -0.112425000000    -0.254146000000     1.007825032230
         CL           3.070352000000     0.000000000000     0.000000000000    34.968852682000

  Charge       = -1
  Multiplicity = 1
  Basis Set: AUG-CC-PVTZ
    Blend: AUG-CC-PVTZ
  Basis Set: (AUG-CC-PVTZ AUX)
    Blend: AUG-CC-PVTZ-JKFIT

    Orbital Energies [Eh]
    ---------------------

    Doubly Occupied:

       1A   -104.506327     2A    -10.229830     3A     -7.695890
       4A     -7.695888     5A     -7.695842     6A     -0.733503
       7A     -0.150335     8A     -0.150330     9A     -0.150330

  @DF-RHF Final Energy:  -459.57350628657616

   => Energetics <=

    Nuclear Repulsion Energy =              0.0000000000000000
    One-Electron Energy =                -641.1304642916963985
    Two-Electron Energy =                 181.5569580051202081
    Total Energy =                       -459.5735062865761620
 Dipole X            :       -104.4388316           98.6361146           -5.8027170
 Dipole Y            :         -0.0001810            0.0000000           -0.0001810
 Dipole Z            :         -0.0000171            0.0000000           -0.0000171
 Magnitude           :                                                    5.8027170

    SAPT Results
  --------------------------------------------------------------------------------------------------------
    Electrostatics                -30.39200071 [mEh]     -19.07126837 [kcal/mol]     -79.79418686 [kJ/mol]
      Elst10,r                    -30.16497577 [mEh]     -18.92880807 [kcal/mol]     -79.19813297 [kJ/mol]
      Elst12,r                     -0.22702494 [mEh]      -0.14246030 [kcal/mol]      -0.59605389 [kJ/mol]

    Exchange                       26.95868881 [mEh]      16.91683263 [kcal/mol]      70.78002772 [kJ/mol]
      Exch10                       24.25502178 [mEh]      15.22025595 [kcal/mol]      63.68155092 [kJ/mol]
      Exch10(S^2)                  23.87654794 [mEh]      14.98276004 [kcal/mol]      62.68786799 [kJ/mol]
      Exch11(S^2)                   0.88787683 [mEh]       0.55715112 [kcal/mol]       2.33112028 [kJ/mol]
      Exch12(S^2)                   1.81579020 [mEh]       1.13942556 [kcal/mol]       4.76735652 [kJ/mol]

    Induction                     -12.24375197 [mEh]      -7.68307035 [kcal/mol]     -32.14596636 [kJ/mol]
      Ind20,r                     -19.20600498 [mEh]     -12.05195008 [kcal/mol]     -50.42535912 [kJ/mol]
      Ind22                        -2.32148353 [mEh]      -1.45675291 [kcal/mol]      -6.09505418 [kJ/mol]
      Exch-Ind20,r                 11.97587862 [mEh]       7.51497729 [kcal/mol]      31.44266498 [kJ/mol]
      Exch-Ind22                    1.44755794 [mEh]       0.90835632 [kcal/mol]       3.80056285 [kJ/mol]
      delta HF,r (2)               -4.13970002 [mEh]      -2.59770098 [kcal/mol]     -10.86878090 [kJ/mol]

    Dispersion                     -7.50591661 [mEh]      -4.71003378 [kcal/mol]     -19.70678134 [kJ/mol]
      Disp20                       -8.76967430 [mEh]      -5.50305371 [kcal/mol]     -23.02477671 [kJ/mol]
      Disp21                        0.52570604 [mEh]       0.32988552 [kcal/mol]       1.38024103 [kJ/mol]
      Disp22 (SDQ)                  0.03780819 [mEh]       0.02372499 [kcal/mol]       0.09926538 [kJ/mol]
      Disp22 (T)                   -1.33601431 [mEh]      -0.83836164 [kcal/mol]      -3.50770509 [kJ/mol]
      Est. Disp22 (T)              -1.53877897 [mEh]      -0.96559838 [kcal/mol]      -4.04006362 [kJ/mol]
      Exch-Disp20                   2.23902243 [mEh]       1.40500779 [kcal/mol]       5.87855259 [kJ/mol]

  Total HF                        -17.27978036 [mEh]     -10.84322588 [kcal/mol]     -45.36805709 [kJ/mol]
  Total SAPT0                     -23.81043223 [mEh]     -14.94127180 [kcal/mol]     -62.51428121 [kJ/mol]
  Total SAPT2                     -22.20771573 [mEh]     -13.93555201 [kcal/mol]     -58.30634962 [kJ/mol]
  Total SAPT2+                    -23.18298047 [mEh]     -14.54753988 [kcal/mol]     -60.86690684 [kJ/mol]

  Special recipe for scaled SAPT0 (see Manual):
    Electrostatics sSAPT0         -30.16497577 [mEh]     -18.92880807 [kcal/mol]     -79.19813297 [kJ/mol]
    Exchange sSAPT0                24.25502178 [mEh]      15.22025595 [kcal/mol]      63.68155092 [kJ/mol]
    Induction sSAPT0              -10.79125239 [mEh]      -6.77161311 [kcal/mol]     -28.33242924 [kJ/mol]
    Dispersion sSAPT0              -6.42248109 [mEh]      -4.03016773 [kcal/mol]     -16.86222178 [kJ/mol]
  Total sSAPT0                    -23.12368746 [mEh]     -14.51033295 [kcal/mol]     -60.71123307 [kJ/mol]
  --------------------------------------------------------------------------------------------------------

*** Psi4 exiting successfully. Buy a developer a beer!
