                               Psi4 1.9 release

  ==> Input File <==

--------------------------------------------------------------------------
MEMORY 60 GB

molecule dimer {
0 1
O      0.000000     0.000000     0.000000
H     -0.834781     0.413522     0.223679
H      0.568287     0.794175    -0.152272
--
-1 1
Cl     3.070352     0.000000     0.000000

units ang
no_reorient
no_com
symmetry c1
}

set {
basis        aug-cc-pVTZ
scf_type     df
}

energy("sapt2+")
--------------------------------------------------------------------------

  //              Dimer HF             //
    Molecular point group: c1
  Charge       = -1
  Multiplicity = 1
  Basis Set: AUG-CC-PVTZ
    Blend: AUG-CC-PVTZ
  Basis Set: (AUG-CC-PVTZ AUX)
    Blend: AUG-CC-PVTZ-JKFIT
  @DF-RHF Final Energy:  -535.62856617315515
    Total Energy =                       -535.6285661731551500
 Dipole X            :       -103.9042220           98.1325139           -5.7717080
 Dipole Y            :         -1.6239226            2.2822166            0.6582940
 Dipole Z            :         -0.0704651            0.1349397            0.0644746
 Magnitude           :                                                    5.8094855
  //            Monomer A HF           //
    Molecular point group: c1
  Multiplicity = 1
  Basis Set: AUG-CC-PVTZ
    Blend: AUG-CC-PVTZ
  Basis Set: (AUG-CC-PVTZ AUX)
    Blend: AUG-CC-PVTZ-JKFIT
  @DF-RHF Final Energy:   -76.05822203388877
    Total Energy =                        -76.0582220338887822
  //            Monomer B HF           //
    Molecular point group: c1

    Geometry (in Angstrom), charge = -1, multiplicity = 1:

       Center              X                  Y                   Z               Mass
    ------------   -----------------  -----------------  -----------------  -----------------
      Gh(O)           0.000000000000     0.000000000000     0.000000000000    15.994914619570
      Gh(H)          -0.834781000000     0.413522000000     0.223679000000     1.007825032230
      Gh(H)           0.568287000000     0.794175000000    -0.152272000000     1.007825032230
         CL           3.070352000000     0.000000000000     0.000000000000    34.968852682000

  Charge       = -1
  Multiplicity = 1
  Basis Set: AUG-CC-PVTZ
    Blend: AUG-CC-PVTZ
  Basis Set: (AUG-CC-PVTZ AUX)
    Blend: AUG-CC-PVTZ-JKFIT

    Orbital Energies [Eh]
    ---------------------

    Doubly Occupied:

       1A   -104.506163     2A    -10.229788     3A     -7.695834
       4A     -7.695832     5A     -7.695812     6A     -0.733504
       7A     -0.150338     8A     -0.150328     9A     -0.150326

  @DF-RHF Final Energy:  -459.57349639117928

   => Energetics <=

    Nuclear Repulsion Energy =              0.0000000000000000
    One-Electron Energy =                -641.1311392572694103
    Two-Electron Energy =                 181.5576428660901911
    Total Energy =                       -459.5734963911792192
 Dipole X            :       -104.4380417           98.6361146           -5.8019271
 Dipole Y            :          0.0000087            0.0000000            0.0000087
 Dipole Z            :         -0.0000453            0.0000000           -0.0000453
 Magnitude           :                                                    5.8019271

    SAPT Results
  --------------------------------------------------------------------------------------------------------
    Electrostatics                 -5.53149014 [mEh]      -3.47106247 [kcal/mol]     -14.52292537 [kJ/mol]
      Elst10,r                     -4.06183792 [mEh]      -2.54884177 [kcal/mol]     -10.66435398 [kJ/mol]
      Elst12,r                     -1.46965223 [mEh]      -0.92222070 [kcal/mol]      -3.85857139 [kJ/mol]

    Exchange                       13.42720030 [mEh]       8.42569539 [kcal/mol]      35.25310953 [kJ/mol]
      Exch10                       12.02293479 [mEh]       7.54450548 [kcal/mol]      31.56621094 [kJ/mol]
      Exch10(S^2)                  11.94446397 [mEh]       7.49526430 [kcal/mol]      31.36018584 [kJ/mol]
      Exch11(S^2)                   0.14542338 [mEh]       0.09125455 [kcal/mol]       0.38180904 [kJ/mol]
      Exch12(S^2)                   1.25884212 [mEh]       0.78993536 [kcal/mol]       3.30508954 [kJ/mol]

    Induction                      -5.26353987 [mEh]      -3.30292114 [kcal/mol]     -13.81942203 [kJ/mol]
      Ind20,r                     -11.08434504 [mEh]      -6.95553152 [kcal/mol]     -29.10194389 [kJ/mol]
      Ind22                        -1.40914728 [mEh]      -0.88425327 [kcal/mol]      -3.69971567 [kJ/mol]
      Exch-Ind20,r                  7.50771726 [mEh]       4.71116371 [kcal/mol]      19.71150895 [kJ/mol]
      Exch-Ind22                    0.95445237 [mEh]       0.59892790 [kcal/mol]       2.50591434 [kJ/mol]
      delta HF,r (2)               -1.23221718 [mEh]      -0.77322796 [kcal/mol]      -3.23518577 [kJ/mol]

    Dispersion                     -4.71003307 [mEh]      -2.95559037 [kcal/mol]     -12.36619011 [kJ/mol]
      Disp20                       -5.59560889 [mEh]      -3.51129759 [kcal/mol]     -14.69126911 [kJ/mol]
      Disp21                        0.44457644 [mEh]       0.27897593 [kcal/mol]       1.16723528 [kJ/mol]
      Disp22 (SDQ)                  0.00825599 [mEh]       0.00518071 [kcal/mol]       0.02167611 [kJ/mol]
      Disp22 (T)                   -0.83817813 [mEh]      -0.52596472 [kcal/mol]      -2.20063639 [kJ/mol]
      Est. Disp22 (T)              -0.97939433 [mEh]      -0.61457922 [kcal/mol]      -2.57139947 [kJ/mol]
      Exch-Disp20                   1.41213772 [mEh]       0.88612980 [kcal/mol]       3.70756708 [kJ/mol]

  Total HF                          3.15225191 [mEh]       1.97806794 [kcal/mol]       8.27623626 [kJ/mol]
  Total SAPT0                      -1.03121925 [mEh]      -0.64709985 [kcal/mol]      -2.70746577 [kJ/mol]
  Total SAPT2                      -1.55130089 [mEh]      -0.97345600 [kcal/mol]      -4.07293991 [kJ/mol]
  Total SAPT2+                     -2.07786279 [mEh]      -1.30387858 [kcal/mol]      -5.45542799 [kJ/mol]

  Special recipe for scaled SAPT0 (see Manual):
    Electrostatics sSAPT0          -4.06183792 [mEh]      -2.54884177 [kcal/mol]     -10.66435398 [kJ/mol]
    Exchange sSAPT0                12.02293479 [mEh]       7.54450548 [kcal/mol]      31.56621094 [kJ/mol]
    Induction sSAPT0               -4.65990175 [mEh]      -2.92413250 [kcal/mol]     -12.23457036 [kJ/mol]
    Dispersion sSAPT0              -4.15545622 [mEh]      -2.60758814 [kcal/mol]     -10.91014879 [kJ/mol]
  Total sSAPT0                     -0.85426109 [mEh]      -0.53605693 [kcal/mol]      -2.24286219 [kJ/mol]
  --------------------------------------------------------------------------------------------------------

*** Psi4 exiting successfully. Buy a developer a beer!
