                               Psi4 1.9 release

  ==> Input File <==

--------------------------------------------------------------------------
MEMORY 60 GB

molecule dimer {
0 1
O      0.000000     0.000000     0.000000
H      0.601878     0.727754    -0.161273
H      0.593892    -0.773835    -0.159133
--
-1 1
Cl     3.070352     0.000000     0.000000

units ang
no_reorient
no_com
symmetry c1
}

set {
basis        aug-cc-pVTZ
scf_type     df
}

energy("sapt2+")
--------------------------------------------------------------------------

  //              Dimer HF             //
    Molecular point group: c1
  Charge       = -1
  Multiplicity = 1
  Basis Set: AUG-CC-PVTZ
    Blend: AUG-CC-PVTZ
  Basis Set: (AUG-CC-PVTZ AUX)
    Blend: AUG-CC-PVTZ-JKFIT
  @DF-RHF Final Energy:  -535.64704159158418
    Total Energy =                       -535.6470415915841841
 Dipole X            :       -105.5595956          100.8957924           -4.6638032
 Dipole Y            :          0.0628199           -0.0870805           -0.0242605
 Dipole Z            :          0.4438150           -0.6054796           -0.1616645
 Magnitude           :                                                    4.6666673
  //            Monomer A HF           //
    Molecular point group: c1
  Multiplicity = 1
  Basis Set: AUG-CC-PVTZ
    Blend: AUG-CC-PVTZ
  Basis Set: (AUG-CC-PVTZ AUX)
    Blend: AUG-CC-PVTZ-JKFIT
  @DF-RHF Final Energy:   -76.05822254525256
    Total Energy =                        -76.0582225452525620
  //            Monomer B HF           //
    Molecular point group: c1

    Geometry (in Angstrom), charge = -1, multiplicity = 1:

       Center              X                  Y                   Z               Mass
    ------------   -----------------  -----------------  -----------------  -----------------
      Gh(O)           0.000000000000     0.000000000000     0.000000000000    15.994914619570
      Gh(H)           0.601878000000     0.727754000000    -0.161273000000     1.007825032230
      Gh(H)           0.593892000000    -0.773835000000    -0.159133000000     1.007825032230
         CL           3.070352000000     0.000000000000     0.000000000000    34.968852682000

  Charge       = -1
  Multiplicity = 1
  Basis Set: AUG-CC-PVTZ
    Blend: AUG-CC-PVTZ
  Basis Set: (AUG-CC-PVTZ AUX)
    Blend: AUG-CC-PVTZ-JKFIT

    Orbital Energies [Eh]
    ---------------------

    Doubly Occupied:

       1A   -104.506223     2A    -10.229803     3A     -7.695854
       4A     -7.695849     5A     -7.695829     6A     -0.733502
       7A     -0.150337     8A     -0.150327     9A     -0.150326

  @DF-RHF Final Energy:  -459.57349919998921

   => Energetics <=

    Nuclear Repulsion Energy =              0.0000000000000000
    One-Electron Energy =                -641.1308970631745296
    Two-Electron Energy =                 181.5573978631852867
    Total Energy =                       -459.5734991999892145
 Dipole X            :       -104.4381583           98.6361146           -5.8020437
 Dipole Y            :          0.0000139            0.0000000            0.0000139
 Dipole Z            :          0.0001202            0.0000000            0.0001202
 Magnitude           :                                                    5.8020437

    SAPT Results
  --------------------------------------------------------------------------------------------------------
    Electrostatics                -28.09504031 [mEh]     -17.62990396 [kcal/mol]     -73.76351817 [kJ/mol]
      Elst10,r                    -28.02576822 [mEh]     -17.58643507 [kcal/mol]     -73.58164433 [kJ/mol]
      Elst12,r                     -0.06927209 [mEh]      -0.04346889 [kcal/mol]      -0.18187384 [kJ/mol]

    Exchange                       20.78248544 [mEh]      13.04120650 [kcal/mol]      54.56440800 [kJ/mol]
      Exch10                       18.35652365 [mEh]      11.51889250 [kcal/mol]      48.19504621 [kJ/mol]
      Exch10(S^2)                  18.17343297 [mEh]      11.40400136 [kcal/mol]      47.71434168 [kJ/mol]
      Exch11(S^2)                   0.69587910 [mEh]       0.43667073 [kcal/mol]       1.82703032 [kJ/mol]
      Exch12(S^2)                   1.73008269 [mEh]       1.08564328 [kcal/mol]       4.54233146 [kJ/mol]

    Induction                      -6.29140850 [mEh]      -3.94791844 [kcal/mol]     -16.51809075 [kJ/mol]
      Ind20,r                     -15.09761599 [mEh]      -9.47389706 [kcal/mol]     -39.63878531 [kJ/mol]
      Ind22                        -2.24740085 [mEh]      -1.41026533 [kcal/mol]      -5.90055012 [kJ/mol]
      Exch-Ind20,r                 10.79279697 [mEh]       6.77258235 [kcal/mol]      28.33648455 [kJ/mol]
      Exch-Ind22                    1.60659412 [mEh]       1.00815303 [kcal/mol]       4.21811229 [kJ/mol]
      delta HF,r (2)               -1.34578276 [mEh]      -0.84449143 [kcal/mol]      -3.53335216 [kJ/mol]

    Dispersion                     -6.58855414 [mEh]      -4.13438014 [kcal/mol]     -17.29824651 [kJ/mol]
      Disp20                       -7.59632710 [mEh]      -4.76676722 [kcal/mol]     -19.94415406 [kJ/mol]
      Disp21                        0.42866474 [mEh]       0.26899118 [kcal/mol]       1.12545912 [kJ/mol]
      Disp22 (SDQ)                 -0.05499550 [mEh]      -0.03451020 [kcal/mol]      -0.14439066 [kJ/mol]
      Disp22 (T)                   -1.18198863 [mEh]      -0.74170906 [kcal/mol]      -3.10331072 [kJ/mol]
      Est. Disp22 (T)              -1.38451783 [mEh]      -0.86879806 [kcal/mol]      -3.63505107 [kJ/mol]
      Exch-Disp20                   2.01862156 [mEh]       1.26670415 [kcal/mol]       5.29989017 [kJ/mol]

  Total HF                        -15.31984634 [mEh]      -9.61334872 [kcal/mol]     -40.22225103 [kJ/mol]
  Total SAPT0                     -20.89755189 [mEh]     -13.11341179 [kcal/mol]     -54.86651493 [kJ/mol]
  Total SAPT2                     -19.18166892 [mEh]     -12.03667897 [kcal/mol]     -50.36146481 [kJ/mol]
  Total SAPT2+                    -20.19251751 [mEh]     -12.67099604 [kcal/mol]     -53.01544743 [kJ/mol]

  Special recipe for scaled SAPT0 (see Manual):
    Electrostatics sSAPT0         -28.02576822 [mEh]     -17.58643507 [kcal/mol]     -73.58164433 [kJ/mol]
    Exchange sSAPT0                18.35652365 [mEh]      11.51889250 [kcal/mol]      48.19504621 [kJ/mol]
    Induction sSAPT0               -5.32110395 [mEh]      -3.33904314 [kcal/mol]     -13.97055649 [kJ/mol]
    Dispersion sSAPT0              -5.51607820 [mEh]      -3.46139133 [kcal/mol]     -14.48246132 [kJ/mol]
  Total sSAPT0                    -20.50642672 [mEh]     -12.86797704 [kcal/mol]     -53.83961593 [kJ/mol]
  --------------------------------------------------------------------------------------------------------

*** Psi4 exiting successfully. Buy a developer a beer!
