                               Psi4 1.9 release

  ==> Input File <==

--------------------------------------------------------------------------
MEMORY 60 GB

molecule dimer {
0 1
O      0.000000     0.000000     0.000000
H      0.399431     0.864229    -0.107027
H      0.767114    -0.588334    -0.205548
--
-1 1
Cl     3.070352     0.000000     0.000000

units ang
no_reorient
no_com
symmetry c1
}

set {
basis        aug-cc-pVTZ
scf_type     df
}

energy("sapt2+")
--------------------------------------------------------------------------

  //              Dimer HF             //
    Molecular point group: c1
  Charge       = -1
  Multiplicity = 1
  Basis Set: AUG-CC-PVTZ
    Blend: AUG-CC-PVTZ
  Basis Set: (AUG-CC-PVTZ AUX)
    Blend: AUG-CC-PVTZ-JKFIT
  @DF-RHF Final Energy:  -535.64771771335666
    Total Energy =                       -535.6477177133566556
 Dipole X            :       -105.4922387          100.8405652           -4.6516735
 Dipole Y            :         -0.3413802            0.5213660            0.1799857
 Dipole Z            :          0.4363313           -0.5906811           -0.1543498
 Magnitude           :                                                    4.6577125
  //            Monomer A HF           //
    Molecular point group: c1
  Multiplicity = 1
  Basis Set: AUG-CC-PVTZ
    Blend: AUG-CC-PVTZ
  Basis Set: (AUG-CC-PVTZ AUX)
    Blend: AUG-CC-PVTZ-JKFIT
  @DF-RHF Final Energy:   -76.05822538107249
    Total Energy =                        -76.0582253810724893
  //            Monomer B HF           //
    Molecular point group: c1

    Geometry (in Angstrom), charge = -1, multiplicity = 1:

       Center              X                  Y                   Z               Mass
    ------------   -----------------  -----------------  -----------------  -----------------
      Gh(O)           0.000000000000     0.000000000000     0.000000000000    15.994914619570
      Gh(H)           0.399431000000     0.864229000000    -0.107027000000     1.007825032230
      Gh(H)           0.767114000000    -0.588334000000    -0.205548000000     1.007825032230
         CL           3.070352000000     0.000000000000     0.000000000000    34.968852682000

  Charge       = -1
  Multiplicity = 1
  Basis Set: AUG-CC-PVTZ
    Blend: AUG-CC-PVTZ
  Basis Set: (AUG-CC-PVTZ AUX)
    Blend: AUG-CC-PVTZ-JKFIT

    Orbital Energies [Eh]
    ---------------------

    Doubly Occupied:

       1A   -104.506237     2A    -10.229806     3A     -7.695859
       4A     -7.695855     5A     -7.695829     6A     -0.733502
       7A     -0.150337     8A     -0.150328     9A     -0.150327

  @DF-RHF Final Energy:  -459.57350140192597

   => Energetics <=

    Nuclear Repulsion Energy =              0.0000000000000000
    One-Electron Energy =                -641.1308449460636893
    Two-Electron Energy =                 181.5573435441376944
    Total Energy =                       -459.5735014019260234
 Dipole X            :       -104.4383274           98.6361146           -5.8022128
 Dipole Y            :         -0.0000668            0.0000000           -0.0000668
 Dipole Z            :          0.0000923            0.0000000            0.0000923
 Magnitude           :                                                    5.8022128

    SAPT Results
  --------------------------------------------------------------------------------------------------------
    Electrostatics                -28.99356473 [mEh]     -18.19373655 [kcal/mol]     -76.12259371 [kJ/mol]
      Elst10,r                    -28.90655951 [mEh]     -18.13913995 [kcal/mol]     -75.89416154 [kJ/mol]
      Elst12,r                     -0.08700522 [mEh]      -0.05459660 [kcal/mol]      -0.22843217 [kJ/mol]

    Exchange                       22.15338068 [mEh]      13.90145625 [kcal/mol]      58.16369297 [kJ/mol]
      Exch10                       19.63466150 [mEh]      12.32093611 [kcal/mol]      51.55079667 [kJ/mol]
      Exch10(S^2)                  19.41407653 [mEh]      12.18251695 [kcal/mol]      50.97165090 [kJ/mol]
      Exch11(S^2)                   0.75711072 [mEh]       0.47509415 [kcal/mol]       1.98779393 [kJ/mol]
      Exch12(S^2)                   1.76160846 [mEh]       1.10542600 [kcal/mol]       4.62510237 [kJ/mol]

    Induction                      -7.41629587 [mEh]      -4.65379592 [kcal/mol]     -19.47148212 [kJ/mol]
      Ind20,r                     -15.96768260 [mEh]     -10.01987211 [kcal/mol]     -41.92314490 [kJ/mol]
      Ind22                        -2.28958590 [mEh]      -1.43673684 [kcal/mol]      -6.01130695 [kJ/mol]
      Exch-Ind20,r                 11.10493314 [mEh]       6.96845075 [kcal/mol]      29.15599794 [kJ/mol]
      Exch-Ind22                    1.59232238 [mEh]       0.99919738 [kcal/mol]       4.18064183 [kJ/mol]
      delta HF,r (2)               -1.85628288 [mEh]      -1.16483510 [kcal/mol]      -4.87367004 [kJ/mol]

    Dispersion                     -6.81504579 [mEh]      -4.27650580 [kcal/mol]     -17.89290027 [kJ/mol]
      Disp20                       -7.88071487 [mEh]      -4.94522324 [kcal/mol]     -20.69081403 [kJ/mol]
      Disp21                        0.44924785 [mEh]       0.28190728 [kcal/mol]       1.17950007 [kJ/mol]
      Disp22 (SDQ)                 -0.04041115 [mEh]      -0.02535838 [kcal/mol]      -0.10609947 [kJ/mol]
      Disp22 (T)                   -1.23309632 [mEh]      -0.77377962 [kcal/mol]      -3.23749393 [kJ/mol]
      Est. Disp22 (T)              -1.42469497 [mEh]      -0.89400959 [kcal/mol]      -3.74053612 [kJ/mol]
      Exch-Disp20                   2.08152734 [mEh]       1.30617813 [kcal/mol]       5.46504928 [kJ/mol]

  Total HF                        -15.99093036 [mEh]     -10.03446029 [kcal/mol]     -41.98418187 [kJ/mol]
  Total SAPT0                     -21.79011788 [mEh]     -13.67350541 [kcal/mol]     -57.20994662 [kJ/mol]
  Total SAPT2                     -20.05566744 [mEh]     -12.58512132 [kcal/mol]     -52.65614762 [kJ/mol]
  Total SAPT2+                    -21.07152571 [mEh]     -13.22258201 [kcal/mol]     -55.32328313 [kJ/mol]

  Special recipe for scaled SAPT0 (see Manual):
    Electrostatics sSAPT0         -28.90655951 [mEh]     -18.13913995 [kcal/mol]     -75.89416154 [kJ/mol]
    Exchange sSAPT0                19.63466150 [mEh]      12.32093611 [kcal/mol]      51.55079667 [kJ/mol]
    Induction sSAPT0               -6.33618861 [mEh]      -3.97601838 [kcal/mol]     -16.63566090 [kJ/mol]
    Dispersion sSAPT0              -5.72742665 [mEh]      -3.59401448 [kcal/mol]     -15.03735660 [kJ/mol]
  Total sSAPT0                    -21.33551327 [mEh]     -13.38823671 [kcal/mol]     -56.01638238 [kJ/mol]
  --------------------------------------------------------------------------------------------------------

*** Psi4 exiting successfully. Buy a developer a beer!
