                               Psi4 1.9 release

  ==> Input File <==

--------------------------------------------------------------------------
MEMORY 60 GB

molecule dimer {
0 1
O      0.000000     0.000000     0.000000
H      0.763308     0.541683    -0.204528
H      0.380197    -0.906600    -0.101873
--
-1 1
Cl     3.070352     0.000000     0.000000

units ang
no_reorient
no_com
symmetry c1
}

set {
basis        aug-cc-pVTZ
scf_type     df
}

energy("sapt2+")
--------------------------------------------------------------------------

  //              Dimer HF             //
    Molecular point group: c1
  Charge       = -1
  Multiplicity = 1
  Basis Set: AUG-CC-PVTZ
    Blend: AUG-CC-PVTZ
  Basis Set: (AUG-CC-PVTZ AUX)
    Blend: AUG-CC-PVTZ-JKFIT
  @DF-RHF Final Energy:  -535.64741313640366
    Total Energy =                       -535.6474131364036566
 Dipole X            :       -105.4717551          100.7970259           -4.6747292
 Dipole Y            :          0.4645916           -0.6895932           -0.2250016
 Dipole Z            :          0.4282847           -0.5790140           -0.1507293
 Magnitude           :                                                    4.6825675
  //            Monomer A HF           //
    Molecular point group: c1
  Multiplicity = 1
  Basis Set: AUG-CC-PVTZ
    Blend: AUG-CC-PVTZ
  Basis Set: (AUG-CC-PVTZ AUX)
    Blend: AUG-CC-PVTZ-JKFIT
  @DF-RHF Final Energy:   -76.05822718797583
    Total Energy =                        -76.0582271879758309
  //            Monomer B HF           //
    Molecular point group: c1

    Geometry (in Angstrom), charge = -1, multiplicity = 1:

       Center              X                  Y                   Z               Mass
    ------------   -----------------  -----------------  -----------------  -----------------
      Gh(O)           0.000000000000     0.000000000000     0.000000000000    15.994914619570
      Gh(H)           0.763308000000     0.541683000000    -0.204528000000     1.007825032230
      Gh(H)           0.380197000000    -0.906600000000    -0.101873000000     1.007825032230
         CL           3.070352000000     0.000000000000     0.000000000000    34.968852682000

  Charge       = -1
  Multiplicity = 1
  Basis Set: AUG-CC-PVTZ
    Blend: AUG-CC-PVTZ
  Basis Set: (AUG-CC-PVTZ AUX)
    Blend: AUG-CC-PVTZ-JKFIT

    Orbital Energies [Eh]
    ---------------------

    Doubly Occupied:

       1A   -104.506239     2A    -10.229806     3A     -7.695860
       4A     -7.695856     5A     -7.695829     6A     -0.733502
       7A     -0.150337     8A     -0.150328     9A     -0.150327

  @DF-RHF Final Energy:  -459.57350181049310

   => Energetics <=

    Nuclear Repulsion Energy =              0.0000000000000000
    One-Electron Energy =                -641.1308355166117963
    Two-Electron Energy =                 181.5573337061187260
    Total Energy =                       -459.5735018104930987
 Dipole X            :       -104.4383661           98.6361146           -5.8022515
 Dipole Y            :          0.0000716            0.0000000            0.0000716
 Dipole Z            :          0.0000891            0.0000000            0.0000891
 Magnitude           :                                                    5.8022515

    SAPT Results
  --------------------------------------------------------------------------------------------------------
    Electrostatics                -28.54034655 [mEh]     -17.90933785 [kcal/mol]     -74.93266955 [kJ/mol]
      Elst10,r                    -28.45910410 [mEh]     -17.85835743 [kcal/mol]     -74.71936751 [kJ/mol]
      Elst12,r                     -0.08124246 [mEh]      -0.05098041 [kcal/mol]      -0.21330205 [kJ/mol]

    Exchange                       21.76980030 [mEh]      13.66075593 [kcal/mol]      57.15660282 [kJ/mol]
      Exch10                       19.29641338 [mEh]      12.10868220 [kcal/mol]      50.66272634 [kJ/mol]
      Exch10(S^2)                  19.08608225 [mEh]      11.97669743 [kcal/mol]      50.11050203 [kJ/mol]
      Exch11(S^2)                   0.70976001 [mEh]       0.44538113 [kcal/mol]       1.86347464 [kJ/mol]
      Exch12(S^2)                   1.76362692 [mEh]       1.10669260 [kcal/mol]       4.63040184 [kJ/mol]

    Induction                      -7.20424569 [mEh]      -4.52073242 [kcal/mol]     -18.91474446 [kJ/mol]
      Ind20,r                     -15.76650126 [mEh]      -9.89362891 [kcal/mol]     -41.39494336 [kJ/mol]
      Ind22                        -2.26808858 [mEh]      -1.42324707 [kcal/mol]      -5.95486576 [kJ/mol]
      Exch-Ind20,r                 11.02006274 [mEh]       6.91519377 [kcal/mol]      28.93317075 [kJ/mol]
      Exch-Ind22                    1.58529011 [mEh]       0.99478456 [kcal/mol]       4.16217861 [kJ/mol]
      delta HF,r (2)               -1.77500870 [mEh]      -1.11383477 [kcal/mol]      -4.66028470 [kJ/mol]

    Dispersion                     -6.71606598 [mEh]      -4.21439503 [kcal/mol]     -17.63302881 [kJ/mol]
      Disp20                       -7.76285847 [mEh]      -4.87126724 [kcal/mol]     -20.38138212 [kJ/mol]
      Disp21                        0.44033527 [mEh]       0.27631455 [kcal/mol]       1.15610009 [kJ/mol]
      Disp22 (SDQ)                 -0.04366023 [mEh]      -0.02739721 [kcal/mol]      -0.11462991 [kJ/mol]
      Disp22 (T)                   -1.21218572 [mEh]      -0.76065802 [kcal/mol]      -3.18259316 [kJ/mol]
      Est. Disp22 (T)              -1.40025209 [mEh]      -0.87867145 [kcal/mol]      -3.67636136 [kJ/mol]
      Exch-Disp20                   2.05036954 [mEh]       1.28662631 [kcal/mol]       5.38324448 [kJ/mol]

  Total HF                        -15.68413793 [mEh]      -9.84194514 [kcal/mol]     -41.17869847 [kJ/mol]
  Total SAPT0                     -21.39662687 [mEh]     -13.42658607 [kcal/mol]     -56.17683611 [kJ/mol]
  Total SAPT2                     -19.68728088 [mEh]     -12.35395526 [kcal/mol]     -51.68894883 [kJ/mol]
  Total SAPT2+                    -20.69085793 [mEh]     -12.98370937 [kcal/mol]     -54.32384001 [kJ/mol]

  Special recipe for scaled SAPT0 (see Manual):
    Electrostatics sSAPT0         -28.45910410 [mEh]     -17.85835743 [kcal/mol]     -74.71936751 [kJ/mol]
    Exchange sSAPT0                19.29641338 [mEh]      12.10868220 [kcal/mol]      50.66272634 [kJ/mol]
    Induction sSAPT0               -6.15308992 [mEh]      -3.86112222 [kcal/mol]     -16.15493535 [kJ/mol]
    Dispersion sSAPT0              -5.64395316 [mEh]      -3.54163407 [kcal/mol]     -14.81819697 [kJ/mol]
  Total sSAPT0                    -20.95973379 [mEh]     -13.15243152 [kcal/mol]     -55.02977348 [kJ/mol]
  --------------------------------------------------------------------------------------------------------

*** Psi4 exiting successfully. Buy a developer a beer!
