                               Psi4 1.9 release

  ==> Input File <==

--------------------------------------------------------------------------
MEMORY 60 GB

molecule dimer {
0 1
O      0.000000     0.000000     0.000000
H     -0.307839     0.903506     0.082485
H      0.944272     0.145551    -0.253017
--
-1 1
Cl     3.070352     0.000000     0.000000

units ang
no_reorient
no_com
symmetry c1
}

set {
basis        aug-cc-pVTZ
scf_type     df
}

energy("sapt2+")
--------------------------------------------------------------------------

  //              Dimer HF             //
    Molecular point group: c1
  Charge       = -1
  Multiplicity = 1
  Basis Set: AUG-CC-PVTZ
    Blend: AUG-CC-PVTZ
  Basis Set: (AUG-CC-PVTZ AUX)
    Blend: AUG-CC-PVTZ-JKFIT
  @DF-RHF Final Energy:  -535.64678041749664
    Total Energy =                       -535.6467804174966432
 Dipole X            :       -104.7325418           99.8387987           -4.8937431
 Dipole Y            :         -1.3880751            1.9824304            0.5943554
 Dipole Z            :          0.2635551           -0.3222588           -0.0587037
 Magnitude           :                                                    4.9300534
  //            Monomer A HF           //
    Molecular point group: c1
  Multiplicity = 1
  Basis Set: AUG-CC-PVTZ
    Blend: AUG-CC-PVTZ
  Basis Set: (AUG-CC-PVTZ AUX)
    Blend: AUG-CC-PVTZ-JKFIT
  @DF-RHF Final Energy:   -76.05823894231160
    Total Energy =                        -76.0582389423116183
  //            Monomer B HF           //
    Molecular point group: c1

    Geometry (in Angstrom), charge = -1, multiplicity = 1:

       Center              X                  Y                   Z               Mass
    ------------   -----------------  -----------------  -----------------  -----------------
      Gh(O)           0.000000000000     0.000000000000     0.000000000000    15.994914619570
      Gh(H)          -0.307839000000     0.903506000000     0.082485000000     1.007825032230
      Gh(H)           0.944272000000     0.145551000000    -0.253017000000     1.007825032230
         CL           3.070352000000     0.000000000000     0.000000000000    34.968852682000

  Charge       = -1
  Multiplicity = 1
  Basis Set: AUG-CC-PVTZ
    Blend: AUG-CC-PVTZ
  Basis Set: (AUG-CC-PVTZ AUX)
    Blend: AUG-CC-PVTZ-JKFIT

    Orbital Energies [Eh]
    ---------------------

    Doubly Occupied:

       1A   -104.506343     2A    -10.229835     3A     -7.695895
       4A     -7.695892     5A     -7.695847     6A     -0.733503
       7A     -0.150336     8A     -0.150330     9A     -0.150330

  @DF-RHF Final Energy:  -459.57350682447696

   => Energetics <=

    Nuclear Repulsion Energy =              0.0000000000000000
    One-Electron Energy =                -641.1303902696078012
    Two-Electron Energy =                 181.5568834451308646
    Total Energy =                       -459.5735068244769082
 Dipole X            :       -104.4388229           98.6361146           -5.8027083
 Dipole Y            :         -0.0001449            0.0000000           -0.0001449
 Dipole Z            :         -0.0000750            0.0000000           -0.0000750
 Magnitude           :                                                    5.8027083

    SAPT Results
  --------------------------------------------------------------------------------------------------------
    Electrostatics                -27.35156134 [mEh]     -17.16336386 [kcal/mol]     -71.81151441 [kJ/mol]
      Elst10,r                    -26.94807525 [mEh]     -16.91017252 [kcal/mol]     -70.75216181 [kJ/mol]
      Elst12,r                     -0.40348610 [mEh]      -0.25319135 [kcal/mol]      -1.05935260 [kJ/mol]

    Exchange                       25.73065318 [mEh]      16.14622864 [kcal/mol]      67.55582062 [kJ/mol]
      Exch10                       23.26739171 [mEh]      14.60050873 [kcal/mol]      61.08852851 [kJ/mol]
      Exch10(S^2)                  22.91905758 [mEh]      14.38192576 [kcal/mol]      60.17397737 [kJ/mol]
      Exch11(S^2)                   0.78177072 [mEh]       0.49056853 [kcal/mol]       2.05253875 [kJ/mol]
      Exch12(S^2)                   1.68149075 [mEh]       1.05515138 [kcal/mol]       4.41475337 [kJ/mol]

    Induction                     -12.17188549 [mEh]      -7.63797346 [kcal/mol]     -31.95728095 [kJ/mol]
      Ind20,r                     -18.56524332 [mEh]     -11.64986606 [kcal/mol]     -48.74303961 [kJ/mol]
      Ind22                        -2.11276750 [mEh]      -1.32578162 [kcal/mol]      -5.54707030 [kJ/mol]
      Exch-Ind20,r                 11.37805748 [mEh]       7.13983886 [kcal/mol]      29.87308581 [kJ/mol]
      Exch-Ind22                    1.29484918 [mEh]       0.81253013 [kcal/mol]       3.39962605 [kJ/mol]
      delta HF,r (2)               -4.16678133 [mEh]      -2.61469476 [kcal/mol]     -10.93988289 [kJ/mol]

    Dispersion                     -7.21528723 [mEh]      -4.52766109 [kcal/mol]     -18.94373400 [kJ/mol]
      Disp20                       -8.46769728 [mEh]      -5.31356026 [kcal/mol]     -22.23193614 [kJ/mol]
      Disp21                        0.51928682 [mEh]       0.32585740 [kcal/mol]       1.36338736 [kJ/mol]
      Disp22 (SDQ)                  0.06629374 [mEh]       0.04159995 [kcal/mol]       0.17405419 [kJ/mol]
      Disp22 (T)                   -1.28121352 [mEh]      -0.80397362 [kcal/mol]      -3.36382562 [kJ/mol]
      Est. Disp22 (T)              -1.47157473 [mEh]      -0.92342708 [kcal/mol]      -3.86361891 [kJ/mol]
      Exch-Disp20                   2.13840422 [mEh]       1.34186891 [kcal/mol]       5.61437950 [kJ/mol]

  Total HF                        -15.03465071 [mEh]      -9.43438575 [kcal/mol]     -39.47347000 [kJ/mol]
  Total SAPT0                     -21.36394377 [mEh]     -13.40607711 [kcal/mol]     -56.09102663 [kJ/mol]
  Total SAPT2                     -20.12208671 [mEh]     -12.62680004 [kcal/mol]     -52.83053137 [kJ/mol]
  Total SAPT2+                    -21.00808087 [mEh]     -13.18276977 [kcal/mol]     -55.15670874 [kJ/mol]

  Special recipe for scaled SAPT0 (see Manual):
    Electrostatics sSAPT0         -26.94807525 [mEh]     -16.91017252 [kcal/mol]     -70.75216181 [kJ/mol]
    Exchange sSAPT0                23.26739171 [mEh]      14.60050873 [kcal/mol]      61.08852851 [kJ/mol]
    Induction sSAPT0              -10.82725599 [mEh]      -6.79420571 [kcal/mol]     -28.42695669 [kJ/mol]
    Dispersion sSAPT0              -6.23030240 [mEh]      -3.90957378 [kcal/mol]     -16.35765670 [kJ/mol]
  Total sSAPT0                    -20.73824193 [mEh]     -13.01344328 [kcal/mol]     -54.44824669 [kJ/mol]
  --------------------------------------------------------------------------------------------------------

*** Psi4 exiting successfully. Buy a developer a beer!
