                               Psi4 1.9 release

  ==> Input File <==

--------------------------------------------------------------------------
MEMORY 60 GB

molecule dimer {
0 1
O      0.000000     0.000000     0.000000
H     -0.702956     0.623110     0.188356
H      0.747467     0.614842    -0.200283
--
-1 1
Cl     3.070352     0.000000     0.000000

units ang
no_reorient
no_com
symmetry c1
}

set {
basis        aug-cc-pVTZ
scf_type     df
}

energy("sapt2+")
--------------------------------------------------------------------------

  //              Dimer HF             //
    Molecular point group: c1
  Charge       = -1
  Multiplicity = 1
  Basis Set: AUG-CC-PVTZ
    Blend: AUG-CC-PVTZ
  Basis Set: (AUG-CC-PVTZ AUX)
    Blend: AUG-CC-PVTZ-JKFIT
  @DF-RHF Final Energy:  -535.63538436022020
    Total Energy =                       -535.6353843602202005
 Dipole X            :       -104.1877914           98.7202282           -5.4675631
 Dipole Y            :         -1.6641170            2.3393902            0.6752732
 Dipole Z            :          0.0451959           -0.0225388            0.0226572
 Magnitude           :                                                    5.5091518
  //            Monomer A HF           //
    Molecular point group: c1
  Multiplicity = 1
  Basis Set: AUG-CC-PVTZ
    Blend: AUG-CC-PVTZ
  Basis Set: (AUG-CC-PVTZ AUX)
    Blend: AUG-CC-PVTZ-JKFIT
  @DF-RHF Final Energy:   -76.05822340249782
    Total Energy =                        -76.0582234024978163
  //            Monomer B HF           //
    Molecular point group: c1

    Geometry (in Angstrom), charge = -1, multiplicity = 1:

       Center              X                  Y                   Z               Mass
    ------------   -----------------  -----------------  -----------------  -----------------
      Gh(O)           0.000000000000     0.000000000000     0.000000000000    15.994914619570
      Gh(H)          -0.702956000000     0.623110000000     0.188356000000     1.007825032230
      Gh(H)           0.747467000000     0.614842000000    -0.200283000000     1.007825032230
         CL           3.070352000000     0.000000000000     0.000000000000    34.968852682000

  Charge       = -1
  Multiplicity = 1
  Basis Set: AUG-CC-PVTZ
    Blend: AUG-CC-PVTZ
  Basis Set: (AUG-CC-PVTZ AUX)
    Blend: AUG-CC-PVTZ-JKFIT

    Orbital Energies [Eh]
    ---------------------

    Doubly Occupied:

       1A   -104.506210     2A    -10.229798     3A     -7.695850
       4A     -7.695848     5A     -7.695820     6A     -0.733502
       7A     -0.150338     8A     -0.150328     9A     -0.150326

  @DF-RHF Final Energy:  -459.57350091379135

   => Energetics <=

    Nuclear Repulsion Energy =              0.0000000000000000
    One-Electron Energy =                -641.1309598361310691
    Two-Electron Energy =                 181.5574589223397481
    Total Energy =                       -459.5735009137913494
 Dipole X            :       -104.4383041           98.6361146           -5.8021895
 Dipole Y            :          0.0000178            0.0000000            0.0000178
 Dipole Z            :         -0.0000880            0.0000000           -0.0000880
 Magnitude           :                                                    5.8021895

    SAPT Results
  --------------------------------------------------------------------------------------------------------
    Electrostatics                -13.43552327 [mEh]      -8.43091814 [kcal/mol]     -35.27496149 [kJ/mol]
      Elst10,r                    -12.35020766 [mEh]      -7.74987231 [kcal/mol]     -32.42546575 [kJ/mol]
      Elst12,r                     -1.08531561 [mEh]      -0.68104583 [kcal/mol]      -2.84949574 [kJ/mol]

    Exchange                       16.95050353 [mEh]      10.63660155 [kcal/mol]      44.50354090 [kJ/mol]
      Exch10                       15.29606214 [mEh]       9.59842390 [kcal/mol]      40.15980561 [kJ/mol]
      Exch10(S^2)                  15.16002025 [mEh]       9.51305633 [kcal/mol]      39.80262768 [kJ/mol]
      Exch11(S^2)                   0.32507353 [mEh]       0.20398672 [kcal/mol]       0.85348043 [kJ/mol]
      Exch12(S^2)                   1.32936787 [mEh]       0.83419093 [kcal/mol]       3.49025486 [kJ/mol]

    Induction                      -7.15045097 [mEh]      -4.48697572 [kcal/mol]     -18.77350642 [kJ/mol]
      Ind20,r                     -13.25355242 [mEh]      -8.31672971 [kcal/mol]     -34.79719710 [kJ/mol]
      Ind22                        -1.56701627 [mEh]      -0.98331756 [kcal/mol]      -4.11420066 [kJ/mol]
      Exch-Ind20,r                  8.64782111 [mEh]       5.42658968 [kcal/mol]      22.70485121 [kJ/mol]
      Exch-Ind22                    1.02246371 [mEh]       0.64160567 [kcal/mol]       2.68447811 [kJ/mol]
      delta HF,r (2)               -2.00016709 [mEh]      -1.25512380 [kcal/mol]      -5.25143798 [kJ/mol]

    Dispersion                     -5.47645956 [mEh]      -3.43653026 [kcal/mol]     -14.37844260 [kJ/mol]
      Disp20                       -6.48027006 [mEh]      -4.06643085 [kcal/mol]     -17.01394669 [kJ/mol]
      Disp21                        0.45273856 [mEh]       0.28409774 [kcal/mol]       1.18866493 [kJ/mol]
      Disp22 (SDQ)                  0.04234175 [mEh]       0.02656985 [kcal/mol]       0.11116825 [kJ/mol]
      Disp22 (T)                   -0.97629161 [mEh]      -0.61263223 [kcal/mol]      -2.56325327 [kJ/mol]
      Est. Disp22 (T)              -1.12360110 [mEh]      -0.70507033 [kcal/mol]      -2.95001427 [kJ/mol]
      Exch-Disp20                   1.63233128 [mEh]       1.02430334 [kcal/mol]       4.28568519 [kJ/mol]

  Total HF                         -3.66004393 [mEh]      -2.29671224 [kcal/mol]      -9.60944402 [kJ/mol]
  Total SAPT0                      -8.50798271 [mEh]      -5.33883975 [kcal/mol]     -22.33770552 [kJ/mol]
  Total SAPT2                      -8.48340948 [mEh]      -5.32341982 [kcal/mol]     -22.27318851 [kJ/mol]
  Total SAPT2+                     -9.11193026 [mEh]      -5.71782256 [kcal/mol]     -23.92336961 [kJ/mol]

  Special recipe for scaled SAPT0 (see Manual):
    Electrostatics sSAPT0         -12.35020766 [mEh]      -7.74987231 [kcal/mol]     -32.42546575 [kJ/mol]
    Exchange sSAPT0                15.29606214 [mEh]       9.59842390 [kcal/mol]      40.15980561 [kJ/mol]
    Induction sSAPT0               -6.37099342 [mEh]      -3.99785873 [kcal/mol]     -16.72704093 [kJ/mol]
    Dispersion sSAPT0              -4.80359897 [mEh]      -3.01430386 [kcal/mol]     -12.61184735 [kJ/mol]
  Total sSAPT0                     -8.22873792 [mEh]      -5.16361100 [kcal/mol]     -21.60454842 [kJ/mol]
  --------------------------------------------------------------------------------------------------------

*** Psi4 exiting successfully. Buy a developer a beer!
