                               Psi4 1.9 release

  ==> Input File <==

--------------------------------------------------------------------------
MEMORY 60 GB

molecule dimer {
0 1
O      0.000000     0.000000     0.000000
H     -0.075069     0.955172     0.020115
H      0.945149    -0.109698    -0.253252
--
-1 1
Br     3.212066     0.000000     0.000000

units ang
no_reorient
no_com
symmetry c1
}

set {
basis        aug-cc-pVTZ
scf_type     df
}

energy("sapt2+")
--------------------------------------------------------------------------

  //              Dimer HF             //
    Molecular point group: c1
  Charge       = -1
  Multiplicity = 1
  Basis Set: AUG-CC-PVTZ
    Blend: AUG-CC-PVTZ
  Basis Set: (AUG-CC-PVTZ AUX)
    Blend: AUG-CC-PVTZ-JKFIT
  @DF-RHF Final Energy: -2648.60584132170197
    Total Energy =                      -2648.6058413217019734
 Dipole X            :       -219.1154235          214.0915892           -5.0238343
 Dipole Y            :         -1.1021381            1.5977143            0.4955762
 Dipole Z            :          0.3535965           -0.4405651           -0.0869685
 Magnitude           :                                                    5.0489673
  //            Monomer A HF           //
    Molecular point group: c1
  Multiplicity = 1
  Basis Set: AUG-CC-PVTZ
    Blend: AUG-CC-PVTZ
  Basis Set: (AUG-CC-PVTZ AUX)
    Blend: AUG-CC-PVTZ-JKFIT
  @DF-RHF Final Energy:   -76.05855677118537
    Total Energy =                        -76.0585567711853514
  //            Monomer B HF           //
    Molecular point group: c1

    Geometry (in Angstrom), charge = -1, multiplicity = 1:

       Center              X                  Y                   Z               Mass
    ------------   -----------------  -----------------  -----------------  -----------------
      Gh(O)           0.000000000000     0.000000000000     0.000000000000    15.994914619570
      Gh(H)          -0.075069000000     0.955172000000     0.020115000000     1.007825032230
      Gh(H)           0.945149000000    -0.109698000000    -0.253252000000     1.007825032230
         BR           3.212066000000     0.000000000000     0.000000000000    78.918337600000

  Charge       = -1
  Multiplicity = 1
  Basis Set: AUG-CC-PVTZ
    Blend: AUG-CC-PVTZ
  Basis Set: (AUG-CC-PVTZ AUX)
    Blend: AUG-CC-PVTZ-JKFIT

    Orbital Energies [Eh]
    ---------------------

    Doubly Occupied:

       1A   -489.720840     2A    -64.860788     3A    -58.215279
       4A    -58.215278     5A    -58.215275     6A     -9.532956
       7A     -7.140308     8A     -7.140307     9A     -7.140283
      10A     -2.881982    11A     -2.881981    12A     -2.881976
      13A     -2.881974    14A     -2.881960    15A     -0.685999
      16A     -0.139341    17A     -0.139341    18A     -0.139337

  @DF-RHF Final Energy: -2572.53368290451454

   => Energetics <=

    Nuclear Repulsion Energy =              0.0000000000000000
    One-Electron Energy =               -3593.6769492939324664
    Two-Electron Energy =                1021.1432663894181587
    Total Energy =                      -2572.5336829045145350
 Dipole X            :       -218.5174549          212.4473763           -6.0700786
 Dipole Y            :         -0.0001561            0.0000000           -0.0001561
 Dipole Z            :         -0.0001032            0.0000000           -0.0001032
 Magnitude           :                                                    6.0700786

    SAPT Results
  --------------------------------------------------------------------------------------------------------
    Electrostatics                -27.32118099 [mEh]     -17.14429990 [kcal/mol]     -71.73175080 [kJ/mol]
      Elst10,r                    -27.05661566 [mEh]     -16.97828266 [kcal/mol]     -71.03713464 [kJ/mol]
      Elst12,r                     -0.26456532 [mEh]      -0.16601725 [kcal/mol]      -0.69461616 [kJ/mol]

    Exchange                       25.81394778 [mEh]      16.19849679 [kcal/mol]      67.77451056 [kJ/mol]
      Exch10                       23.37943837 [mEh]      14.67081907 [kcal/mol]      61.38270699 [kJ/mol]
      Exch10(S^2)                  23.01440203 [mEh]      14.44175530 [kcal/mol]      60.42430419 [kJ/mol]
      Exch11(S^2)                   0.88877721 [mEh]       0.55771612 [kcal/mol]       2.33348425 [kJ/mol]
      Exch12(S^2)                   1.54573220 [mEh]       0.96996160 [kcal/mol]       4.05831932 [kJ/mol]

    Induction                     -10.68756325 [mEh]      -6.70654719 [kcal/mol]     -28.06019344 [kJ/mol]
      Ind20,r                     -20.05773571 [mEh]     -12.58641918 [kcal/mol]     -52.66157784 [kJ/mol]
      Ind22                        -2.49452024 [mEh]      -1.56533508 [kcal/mol]      -6.54936198 [kJ/mol]
      Exch-Ind20,r                 13.92190712 [mEh]       8.73612861 [kcal/mol]      36.55196210 [kJ/mol]
      Exch-Ind22                    1.73142570 [mEh]       1.08648603 [kcal/mol]       4.54585754 [kJ/mol]
      delta HF,r (2)               -3.78864012 [mEh]      -2.37740757 [kcal/mol]      -9.94707327 [kJ/mol]

    Dispersion                     -7.44040348 [mEh]      -4.66892367 [kcal/mol]     -19.53477666 [kJ/mol]
      Disp20                       -8.74798657 [mEh]      -5.48944445 [kcal/mol]     -22.96783557 [kJ/mol]
      Disp21                        0.56073757 [mEh]       0.35186814 [kcal/mol]       1.47221630 [kJ/mol]
      Disp22 (SDQ)                  0.02731318 [mEh]       0.01713928 [kcal/mol]       0.07171075 [kJ/mol]
      Disp22 (T)                   -1.31376873 [mEh]      -0.82440232 [kcal/mol]      -3.44929932 [kJ/mol]
      Est. Disp22 (T)              -1.51170040 [mEh]      -0.94860632 [kcal/mol]      -3.96896885 [kJ/mol]
      Exch-Disp20                   2.23123273 [mEh]       1.40011967 [kcal/mol]       5.85810072 [kJ/mol]

  Total HF                        -13.60164600 [mEh]      -8.53516173 [kcal/mol]     -35.71111666 [kJ/mol]
  Total SAPT0                     -20.11839984 [mEh]     -12.62448650 [kcal/mol]     -52.82085151 [kJ/mol]
  Total SAPT2                     -18.71155030 [mEh]     -11.74167508 [kcal/mol]     -49.12716854 [kJ/mol]
  Total SAPT2+                    -19.63519994 [mEh]     -12.32127398 [kcal/mol]     -51.55221034 [kJ/mol]

  Special recipe for scaled SAPT0 (see Manual):
    Electrostatics sSAPT0         -27.05661566 [mEh]     -16.97828266 [kcal/mol]     -71.03713464 [kJ/mol]
    Exchange sSAPT0                23.37943837 [mEh]      14.67081907 [kcal/mol]      61.38270699 [kJ/mol]
    Induction sSAPT0               -9.25145079 [mEh]      -5.80537302 [kcal/mol]     -24.28968070 [kJ/mol]
    Dispersion sSAPT0              -6.40889077 [mEh]      -4.02163968 [kcal/mol]     -16.82654041 [kJ/mol]
  Total sSAPT0                    -19.33751886 [mEh]     -12.13447628 [kcal/mol]     -50.77064876 [kJ/mol]
  --------------------------------------------------------------------------------------------------------

*** Psi4 exiting successfully. Buy a developer a beer!
