                               Psi4 1.9 release

  ==> Input File <==

--------------------------------------------------------------------------
MEMORY 60 GB

molecule dimer {
0 1
O      0.000000     0.000000     0.000000
H      0.599313     0.730363    -0.160585
H      0.593396    -0.769465    -0.159000
--
-1 1
Br     3.212066     0.000000     0.000000

units ang
no_reorient
no_com
symmetry c1
}

set {
basis        aug-cc-pVTZ
scf_type     df
}

energy("sapt2+")
--------------------------------------------------------------------------

  //              Dimer HF             //
    Molecular point group: c1
  Charge       = -1
  Multiplicity = 1
  Basis Set: AUG-CC-PVTZ
    Blend: AUG-CC-PVTZ
  Basis Set: (AUG-CC-PVTZ AUX)
    Blend: AUG-CC-PVTZ-JKFIT
  @DF-RHF Final Energy: -2648.60518707551228
    Total Energy =                      -2648.6051870755127311
 Dipole X            :       -219.6459554          214.7012696           -4.9446857
 Dipole Y            :          0.0539868           -0.0738921           -0.0199052
 Dipole Z            :          0.4505794           -0.6039281           -0.1533487
 Magnitude           :                                                    4.9471031
  //            Monomer A HF           //
    Molecular point group: c1
  Multiplicity = 1
  Basis Set: AUG-CC-PVTZ
    Blend: AUG-CC-PVTZ
  Basis Set: (AUG-CC-PVTZ AUX)
    Blend: AUG-CC-PVTZ-JKFIT
  @DF-RHF Final Energy:   -76.05853953385825
    Total Energy =                        -76.0585395338582515
  //            Monomer B HF           //
    Molecular point group: c1

    Geometry (in Angstrom), charge = -1, multiplicity = 1:

       Center              X                  Y                   Z               Mass
    ------------   -----------------  -----------------  -----------------  -----------------
      Gh(O)           0.000000000000     0.000000000000     0.000000000000    15.994914619570
      Gh(H)           0.599313000000     0.730363000000    -0.160585000000     1.007825032230
      Gh(H)           0.593396000000    -0.769465000000    -0.159000000000     1.007825032230
         BR           3.212066000000     0.000000000000     0.000000000000    78.918337600000

  Charge       = -1
  Multiplicity = 1
  Basis Set: AUG-CC-PVTZ
    Blend: AUG-CC-PVTZ
  Basis Set: (AUG-CC-PVTZ AUX)
    Blend: AUG-CC-PVTZ-JKFIT

    Orbital Energies [Eh]
    ---------------------

    Doubly Occupied:

       1A   -489.720655     2A    -64.860663     3A    -58.215145
       4A    -58.215145     5A    -58.215141     6A     -9.532918
       7A     -7.140266     8A     -7.140263     9A     -7.140251
      10A     -2.881937    11A     -2.881937    12A     -2.881935
      13A     -2.881927    14A     -2.881916    15A     -0.685997
      16A     -0.139338    17A     -0.139337    18A     -0.139336

  @DF-RHF Final Energy: -2572.53367969306601

   => Energetics <=

    Nuclear Repulsion Energy =              0.0000000000000000
    One-Electron Energy =               -3593.6791383796507944
    Two-Electron Energy =                1021.1454586865849024
    Total Energy =                      -2572.5336796930660057
 Dipole X            :       -218.5174138          212.4473763           -6.0700375
 Dipole Y            :          0.0000017            0.0000000            0.0000017
 Dipole Z            :          0.0000173            0.0000000            0.0000173
 Magnitude           :                                                    6.0700375

    SAPT Results
  --------------------------------------------------------------------------------------------------------
    Electrostatics                -26.31839508 [mEh]     -16.51504225 [kcal/mol]     -69.09893676 [kJ/mol]
      Elst10,r                    -26.28481683 [mEh]     -16.49397158 [kcal/mol]     -69.01077708 [kJ/mol]
      Elst12,r                     -0.03357825 [mEh]      -0.02107067 [kcal/mol]      -0.08815968 [kJ/mol]

    Exchange                       20.51721104 [mEh]      12.87474430 [kcal/mol]      53.86793017 [kJ/mol]
      Exch10                       18.31610010 [mEh]      11.49352634 [kcal/mol]      48.08891419 [kJ/mol]
      Exch10(S^2)                  18.12170510 [mEh]      11.37154163 [kcal/mol]      47.57853019 [kJ/mol]
      Exch11(S^2)                   0.73197027 [mEh]       0.45931828 [kcal/mol]       1.92178767 [kJ/mol]
      Exch12(S^2)                   1.46914067 [mEh]       0.92189969 [kcal/mol]       3.85722831 [kJ/mol]

    Induction                      -5.54373281 [mEh]      -3.47874486 [kcal/mol]     -14.55506849 [kJ/mol]
      Ind20,r                     -16.19766011 [mEh]     -10.16418517 [kcal/mol]     -42.52695076 [kJ/mol]
      Ind22                        -2.40371662 [mEh]      -1.50835495 [kcal/mol]      -6.31095712 [kJ/mol]
      Exch-Ind20,r                 12.52781774 [mEh]       7.86132432 [kcal/mol]      32.89178094 [kJ/mol]
      Exch-Ind22                    1.85911567 [mEh]       1.16661270 [kcal/mol]       4.88110752 [kJ/mol]
      delta HF,r (2)               -1.32928949 [mEh]      -0.83414175 [kcal/mol]      -3.49004908 [kJ/mol]

    Dispersion                     -6.64449316 [mEh]      -4.16948241 [kcal/mol]     -17.44511439 [kJ/mol]
      Disp20                       -7.74993744 [mEh]      -4.86315917 [kcal/mol]     -20.34745795 [kJ/mol]
      Disp21                        0.47934475 [mEh]       0.30079337 [kcal/mol]       1.25851947 [kJ/mol]
      Disp22 (SDQ)                 -0.05581995 [mEh]      -0.03502755 [kcal/mol]      -0.14655526 [kJ/mol]
      Disp22 (T)                   -1.19432535 [mEh]      -0.74945047 [kcal/mol]      -3.13570077 [kJ/mol]
      Est. Disp22 (T)              -1.38272641 [mEh]      -0.86767392 [kcal/mol]      -3.63034768 [kJ/mol]
      Exch-Disp20                   2.06464589 [mEh]       1.29558485 [kcal/mol]       5.42072703 [kJ/mol]

  Total HF                        -12.96784859 [mEh]      -8.13744784 [kcal/mol]     -34.04708178 [kJ/mol]
  Total SAPT0                     -18.65314014 [mEh]     -11.70502215 [kcal/mol]     -48.97381270 [kJ/mol]
  Total SAPT2                     -17.03020840 [mEh]     -10.68661711 [kcal/mol]     -44.71280600 [kJ/mol]
  Total SAPT2+                    -17.98941001 [mEh]     -11.28852521 [kcal/mol]     -47.23118947 [kJ/mol]

  Special recipe for scaled SAPT0 (see Manual):
    Electrostatics sSAPT0         -26.28481683 [mEh]     -16.49397158 [kcal/mol]     -69.01077708 [kJ/mol]
    Exchange sSAPT0                18.31610010 [mEh]      11.49352634 [kcal/mol]      48.08891419 [kJ/mol]
    Induction sSAPT0               -4.59162667 [mEh]      -2.88128924 [kcal/mol]     -12.05531416 [kJ/mol]
    Dispersion sSAPT0              -5.61813270 [mEh]      -3.52543149 [kcal/mol]     -14.75040537 [kJ/mol]
  Total sSAPT0                    -18.17847610 [mEh]     -11.40716597 [kcal/mol]     -47.72758241 [kJ/mol]
  --------------------------------------------------------------------------------------------------------

*** Psi4 exiting successfully. Buy a developer a beer!
