                               Psi4 1.9 release

  ==> Input File <==

--------------------------------------------------------------------------
MEMORY 60 GB

molecule dimer {
0 1
O      0.000000     0.000000     0.000000
H     -0.526324     0.788345     0.141028
H      0.871503     0.394244    -0.233518
--
-1 1
Br     3.212066     0.000000     0.000000

units ang
no_reorient
no_com
symmetry c1
}

set {
basis        aug-cc-pVTZ
scf_type     df
}

energy("sapt2+")
--------------------------------------------------------------------------

  //              Dimer HF             //
    Molecular point group: c1
  Charge       = -1
  Multiplicity = 1
  Basis Set: AUG-CC-PVTZ
    Blend: AUG-CC-PVTZ
  Basis Set: (AUG-CC-PVTZ AUX)
    Blend: AUG-CC-PVTZ-JKFIT
  @DF-RHF Final Energy: -2648.59969383529187
    Total Energy =                      -2648.5996938352923280
 Dipole X            :       -218.5605122          213.0996701           -5.4608422
 Dipole Y            :         -1.5991863            2.2347693            0.6355830
 Dipole Z            :          0.1649241           -0.1747808           -0.0098567
 Magnitude           :                                                    5.4977141
  //            Monomer A HF           //
    Molecular point group: c1
  Multiplicity = 1
  Basis Set: AUG-CC-PVTZ
    Blend: AUG-CC-PVTZ
  Basis Set: (AUG-CC-PVTZ AUX)
    Blend: AUG-CC-PVTZ-JKFIT
  @DF-RHF Final Energy:   -76.05854839375718
    Total Energy =                        -76.0585483937571780
  //            Monomer B HF           //
    Molecular point group: c1

    Geometry (in Angstrom), charge = -1, multiplicity = 1:

       Center              X                  Y                   Z               Mass
    ------------   -----------------  -----------------  -----------------  -----------------
      Gh(O)           0.000000000000     0.000000000000     0.000000000000    15.994914619570
      Gh(H)          -0.526324000000     0.788345000000     0.141028000000     1.007825032230
      Gh(H)           0.871503000000     0.394244000000    -0.233518000000     1.007825032230
         BR           3.212066000000     0.000000000000     0.000000000000    78.918337600000

  Charge       = -1
  Multiplicity = 1
  Basis Set: AUG-CC-PVTZ
    Blend: AUG-CC-PVTZ
  Basis Set: (AUG-CC-PVTZ AUX)
    Blend: AUG-CC-PVTZ-JKFIT

    Orbital Energies [Eh]
    ---------------------

    Doubly Occupied:

       1A   -489.720786     2A    -64.860750     3A    -58.215239
       4A    -58.215239     5A    -58.215235     6A     -9.532944
       7A     -7.140295     8A     -7.140294     9A     -7.140272
      10A     -2.881968    11A     -2.881968    12A     -2.881963
      13A     -2.881962    14A     -2.881945    15A     -0.686000
      16A     -0.139341    17A     -0.139341    18A     -0.139338

  @DF-RHF Final Energy: -2572.53368169924170

   => Energetics <=

    Nuclear Repulsion Energy =              0.0000000000000000
    One-Electron Energy =               -3593.6775981173732362
    Two-Electron Energy =                1021.1439164181315391
    Total Energy =                      -2572.5336816992416971
 Dipole X            :       -218.5174276          212.4473763           -6.0700513
 Dipole Y            :          0.0000223            0.0000000            0.0000223
 Dipole Z            :         -0.0000918            0.0000000           -0.0000918
 Magnitude           :                                                    6.0700513

    SAPT Results
  --------------------------------------------------------------------------------------------------------
    Electrostatics                -19.08047784 [mEh]     -11.97318061 [kcal/mol]     -50.09578767 [kJ/mol]
      Elst10,r                    -18.45124774 [mEh]     -11.57833276 [kcal/mol]     -48.44374426 [kJ/mol]
      Elst12,r                     -0.62923011 [mEh]      -0.39484785 [kcal/mol]      -1.65204342 [kJ/mol]

    Exchange                       20.94624687 [mEh]      13.14396835 [kcal/mol]      54.99436357 [kJ/mol]
      Exch10                       19.11008756 [mEh]      11.99176099 [kcal/mol]      50.17352799 [kJ/mol]
      Exch10(S^2)                  18.87477829 [mEh]      11.84410219 [kcal/mol]      49.55572356 [kJ/mol]
      Exch11(S^2)                   0.57549616 [mEh]       0.36112930 [kcal/mol]       1.51096497 [kJ/mol]
      Exch12(S^2)                   1.26066314 [mEh]       0.79107806 [kcal/mol]       3.30987061 [kJ/mol]

    Induction                      -8.67836944 [mEh]      -5.44575904 [kcal/mol]     -22.78505582 [kJ/mol]
      Ind20,r                     -16.59472147 [mEh]     -10.41334494 [kcal/mol]     -43.56943523 [kJ/mol]
      Ind22                        -1.80064164 [mEh]      -1.12991969 [kcal/mol]      -4.72758397 [kJ/mol]
      Exch-Ind20,r                 11.47258304 [mEh]       7.19915454 [kcal/mol]      30.12126262 [kJ/mol]
      Exch-Ind22                    1.24485432 [mEh]       0.78115788 [kcal/mol]       3.26836456 [kJ/mol]
      delta HF,r (2)               -3.00044368 [mEh]      -1.88280684 [kcal/mol]      -7.87766381 [kJ/mol]

    Dispersion                     -6.40249939 [mEh]      -4.01762902 [kcal/mol]     -16.80975982 [kJ/mol]
      Disp20                       -7.61736402 [mEh]      -4.77996809 [kcal/mol]     -19.99938648 [kJ/mol]
      Disp21                        0.52932368 [mEh]       0.33215563 [kcal/mol]       1.38973914 [kJ/mol]
      Disp22 (SDQ)                  0.05570141 [mEh]       0.03495317 [kcal/mol]       0.14624404 [kJ/mol]
      Disp22 (T)                   -1.12498790 [mEh]      -0.70594057 [kcal/mol]      -2.95365533 [kJ/mol]
      Est. Disp22 (T)              -1.29728352 [mEh]      -0.81405770 [kcal/mol]      -3.40601740 [kJ/mol]
      Exch-Disp20                   1.92712306 [mEh]       1.20928797 [kcal/mol]       5.05966089 [kJ/mol]

  Total HF                         -7.46374229 [mEh]      -4.68356900 [kcal/mol]     -19.59605269 [kJ/mol]
  Total SAPT0                     -13.15398326 [mEh]      -8.25424911 [kcal/mol]     -34.53577829 [kJ/mol]
  Total SAPT2                     -12.50284138 [mEh]      -7.84565142 [kcal/mol]     -32.82620552 [kJ/mol]
  Total SAPT2+                    -13.21509980 [mEh]      -8.29260032 [kcal/mol]     -34.69623974 [kJ/mol]

  Special recipe for scaled SAPT0 (see Manual):
    Electrostatics sSAPT0         -18.45124774 [mEh]     -11.57833276 [kcal/mol]     -48.44374426 [kJ/mol]
    Exchange sSAPT0                19.11008756 [mEh]      11.99176099 [kcal/mol]      50.17352799 [kJ/mol]
    Induction sSAPT0               -7.68812922 [mEh]      -4.82437392 [kcal/mol]     -20.18518049 [kJ/mol]
    Dispersion sSAPT0              -5.61726314 [mEh]      -3.52488584 [kcal/mol]     -14.74812234 [kJ/mol]
  Total sSAPT0                    -12.64655253 [mEh]      -7.93583153 [kcal/mol]     -33.20351910 [kJ/mol]
  --------------------------------------------------------------------------------------------------------

*** Psi4 exiting successfully. Buy a developer a beer!
