                               Psi4 1.9 release

  ==> Input File <==

--------------------------------------------------------------------------
MEMORY 60 GB

molecule dimer {
0 1
O      0.000000     0.000000     0.000000
H     -0.311304     0.902511     0.083414
H      0.940368     0.147292    -0.251971
--
-1 1
Br     3.212066     0.000000     0.000000

units ang
no_reorient
no_com
symmetry c1
}

set {
basis        aug-cc-pVTZ
scf_type     df
}

energy("sapt2+")
--------------------------------------------------------------------------

  //              Dimer HF             //
    Molecular point group: c1
  Charge       = -1
  Multiplicity = 1
  Basis Set: AUG-CC-PVTZ
    Blend: AUG-CC-PVTZ
  Basis Set: (AUG-CC-PVTZ AUX)
    Blend: AUG-CC-PVTZ-JKFIT
  @DF-RHF Final Energy: -2648.60375105180356
    Total Energy =                      -2648.6037510518035560
 Dipole X            :       -218.8329769          213.6361350           -5.1968419
 Dipole Y            :         -1.3995101            1.9838402            0.5843300
 Dipole Z            :          0.2696505           -0.3185266           -0.0488760
 Magnitude           :                                                    5.2298180
  //            Monomer A HF           //
    Molecular point group: c1
  Multiplicity = 1
  Basis Set: AUG-CC-PVTZ
    Blend: AUG-CC-PVTZ
  Basis Set: (AUG-CC-PVTZ AUX)
    Blend: AUG-CC-PVTZ-JKFIT
  @DF-RHF Final Energy:   -76.05855654531192
    Total Energy =                        -76.0585565453119159
  //            Monomer B HF           //
    Molecular point group: c1

    Geometry (in Angstrom), charge = -1, multiplicity = 1:

       Center              X                  Y                   Z               Mass
    ------------   -----------------  -----------------  -----------------  -----------------
      Gh(O)           0.000000000000     0.000000000000     0.000000000000    15.994914619570
      Gh(H)          -0.311304000000     0.902511000000     0.083414000000     1.007825032230
      Gh(H)           0.940368000000     0.147292000000    -0.251971000000     1.007825032230
         BR           3.212066000000     0.000000000000     0.000000000000    78.918337600000

  Charge       = -1
  Multiplicity = 1
  Basis Set: AUG-CC-PVTZ
    Blend: AUG-CC-PVTZ
  Basis Set: (AUG-CC-PVTZ AUX)
    Blend: AUG-CC-PVTZ-JKFIT

    Orbital Energies [Eh]
    ---------------------

    Doubly Occupied:

       1A   -489.720842     2A    -64.860788     3A    -58.215279
       4A    -58.215278     5A    -58.215275     6A     -9.532956
       7A     -7.140307     8A     -7.140306     9A     -7.140283
      10A     -2.881982    11A     -2.881981    12A     -2.881975
      13A     -2.881975    14A     -2.881960    15A     -0.686000
      16A     -0.139341    17A     -0.139341    18A     -0.139338

  @DF-RHF Final Energy: -2572.53368285188708

   => Energetics <=

    Nuclear Repulsion Energy =              0.0000000000000000
    One-Electron Energy =               -3593.6769476795125229
    Two-Electron Energy =                1021.1432648276255577
    Total Energy =                      -2572.5336828518870789
 Dipole X            :       -218.5174138          212.4473763           -6.0700375
 Dipole Y            :         -0.0000928            0.0000000           -0.0000928
 Dipole Z            :         -0.0001194            0.0000000           -0.0001194
 Magnitude           :                                                    6.0700375

    SAPT Results
  --------------------------------------------------------------------------------------------------------
    Electrostatics                -24.41734365 [mEh]     -15.32211446 [kcal/mol]     -64.10772692 [kJ/mol]
      Elst10,r                    -24.00673087 [mEh]     -15.06445105 [kcal/mol]     -63.02966321 [kJ/mol]
      Elst12,r                     -0.41061278 [mEh]      -0.25766341 [kcal/mol]      -1.07806371 [kJ/mol]

    Exchange                       24.63539706 [mEh]      15.45894504 [kcal/mol]      64.68022606 [kJ/mol]
      Exch10                       22.42217233 [mEh]      14.07012556 [kcal/mol]      58.86940534 [kJ/mol]
      Exch10(S^2)                  22.08700810 [mEh]      13.85980683 [kcal/mol]      57.98943177 [kJ/mol]
      Exch11(S^2)                   0.78382154 [mEh]       0.49185544 [kcal/mol]       2.05792316 [kJ/mol]
      Exch12(S^2)                   1.42940319 [mEh]       0.89696404 [kcal/mol]       3.75289756 [kJ/mol]

    Induction                     -10.62518561 [mEh]      -6.66740463 [kcal/mol]     -27.89642097 [kJ/mol]
      Ind20,r                     -19.20664658 [mEh]     -12.05235269 [kcal/mol]     -50.42704365 [kJ/mol]
      Ind22                        -2.20047641 [mEh]      -1.38081979 [kcal/mol]      -5.77735001 [kJ/mol]
      Exch-Ind20,r                 13.11343920 [mEh]       8.22880733 [kcal/mol]      34.42932988 [kJ/mol]
      Exch-Ind22                    1.50238687 [mEh]       0.94276199 [kcal/mol]       3.94451618 [kJ/mol]
      delta HF,r (2)               -3.83388869 [mEh]      -2.40580147 [kcal/mol]     -10.06587336 [kJ/mol]

    Dispersion                     -7.15228373 [mEh]      -4.48812580 [kcal/mol]     -18.77831835 [kJ/mol]
      Disp20                       -8.45213501 [mEh]      -5.30379479 [kcal/mol]     -22.19107741 [kJ/mol]
      Disp21                        0.55669371 [mEh]       0.34933058 [kcal/mol]       1.46159914 [kJ/mol]
      Disp22 (SDQ)                  0.05365561 [mEh]       0.03366940 [kcal/mol]       0.14087277 [kJ/mol]
      Disp22 (T)                   -1.25594570 [mEh]      -0.78811782 [kcal/mol]      -3.29748497 [kJ/mol]
      Est. Disp22 (T)              -1.44647435 [mEh]      -0.90767636 [kcal/mol]      -3.79771787 [kJ/mol]
      Exch-Disp20                   2.13597631 [mEh]       1.34034537 [kcal/mol]       5.60800502 [kJ/mol]

  Total HF                        -11.51165460 [mEh]      -7.22367232 [kcal/mol]     -30.22384500 [kJ/mol]
  Total SAPT0                     -17.82781331 [mEh]     -11.18712175 [kcal/mol]     -46.80691739 [kJ/mol]
  Total SAPT2                     -16.72329090 [mEh]     -10.49402347 [kcal/mol]     -43.90699421 [kJ/mol]
  Total SAPT2+                    -17.55941593 [mEh]     -11.01869985 [kcal/mol]     -46.10224018 [kJ/mol]

  Special recipe for scaled SAPT0 (see Manual):
    Electrostatics sSAPT0         -24.00673087 [mEh]     -15.06445105 [kcal/mol]     -63.02966321 [kJ/mol]
    Exchange sSAPT0                22.42217233 [mEh]      14.07012556 [kcal/mol]      58.86940534 [kJ/mol]
    Induction sSAPT0               -9.32101284 [mEh]      -5.84902386 [kcal/mol]     -24.47231583 [kJ/mol]
    Dispersion sSAPT0              -6.21743712 [mEh]      -3.90150070 [kcal/mol]     -16.32387892 [kJ/mol]
  Total sSAPT0                    -17.12300850 [mEh]     -10.74485005 [kcal/mol]     -44.95645262 [kJ/mol]
  --------------------------------------------------------------------------------------------------------

*** Psi4 exiting successfully. Buy a developer a beer!
