                               Psi4 1.9 release

  ==> Input File <==

--------------------------------------------------------------------------
MEMORY 60 GB

molecule dimer {
0 1
O      0.000000     0.000000     0.000000
H      0.396301     0.866062    -0.106189
H      0.765543    -0.584246    -0.205127
--
-1 1
Br     3.212066     0.000000     0.000000

units ang
no_reorient
no_com
symmetry c1
}

set {
basis        aug-cc-pVTZ
scf_type     df
}

energy("sapt2+")
--------------------------------------------------------------------------

  //              Dimer HF             //
    Molecular point group: c1
  Charge       = -1
  Multiplicity = 1
  Basis Set: AUG-CC-PVTZ
    Blend: AUG-CC-PVTZ
  Basis Set: (AUG-CC-PVTZ AUX)
    Blend: AUG-CC-PVTZ-JKFIT
  @DF-RHF Final Energy: -2648.60559792399999
    Total Energy =                      -2648.6055979239999942
 Dipole X            :       -219.5789993          214.6429433           -4.9360560
 Dipole Y            :         -0.3480968            0.5325551            0.1844583
 Dipole Z            :          0.4428529           -0.5883020           -0.1454491
 Magnitude           :                                                    4.9416424
  //            Monomer A HF           //
    Molecular point group: c1
  Multiplicity = 1
  Basis Set: AUG-CC-PVTZ
    Blend: AUG-CC-PVTZ
  Basis Set: (AUG-CC-PVTZ AUX)
    Blend: AUG-CC-PVTZ-JKFIT
  @DF-RHF Final Energy:   -76.05854256632922
    Total Energy =                        -76.0585425663292369
  //            Monomer B HF           //
    Molecular point group: c1

    Geometry (in Angstrom), charge = -1, multiplicity = 1:

       Center              X                  Y                   Z               Mass
    ------------   -----------------  -----------------  -----------------  -----------------
      Gh(O)           0.000000000000     0.000000000000     0.000000000000    15.994914619570
      Gh(H)           0.396301000000     0.866062000000    -0.106189000000     1.007825032230
      Gh(H)           0.765543000000    -0.584246000000    -0.205127000000     1.007825032230
         BR           3.212066000000     0.000000000000     0.000000000000    78.918337600000

  Charge       = -1
  Multiplicity = 1
  Basis Set: AUG-CC-PVTZ
    Blend: AUG-CC-PVTZ
  Basis Set: (AUG-CC-PVTZ AUX)
    Blend: AUG-CC-PVTZ-JKFIT

    Orbital Energies [Eh]
    ---------------------

    Doubly Occupied:

       1A   -489.720697     2A    -64.860691     3A    -58.215175
       4A    -58.215175     5A    -58.215171     6A     -9.532926
       7A     -7.140275     8A     -7.140273     9A     -7.140256
      10A     -2.881947    11A     -2.881947    12A     -2.881944
      13A     -2.881939    14A     -2.881924    15A     -0.685998
      16A     -0.139338    17A     -0.139337    18A     -0.139336

  @DF-RHF Final Energy: -2572.53368023811254

   => Energetics <=

    Nuclear Repulsion Energy =              0.0000000000000000
    One-Electron Energy =               -3593.6786652236537520
    Two-Electron Energy =                1021.1449849855412140
    Total Energy =                      -2572.5336802381125381
 Dipole X            :       -218.5174394          212.4473763           -6.0700632
 Dipole Y            :         -0.0000530            0.0000000           -0.0000530
 Dipole Z            :          0.0000014            0.0000000            0.0000014
 Magnitude           :                                                    6.0700632

    SAPT Results
  --------------------------------------------------------------------------------------------------------
    Electrostatics                -26.94995864 [mEh]     -16.91135436 [kcal/mol]     -70.75710666 [kJ/mol]
      Elst10,r                    -26.88362838 [mEh]     -16.86973150 [kcal/mol]     -70.58295659 [kJ/mol]
      Elst12,r                     -0.06633026 [mEh]      -0.04162287 [kcal/mol]      -0.17415007 [kJ/mol]

    Exchange                       21.72768283 [mEh]      13.63432682 [kcal/mol]      57.04602342 [kJ/mol]
      Exch10                       19.44459926 [mEh]      12.20167025 [kcal/mol]      51.05178833 [kJ/mol]
      Exch10(S^2)                  19.21588606 [mEh]      12.05815055 [kcal/mol]      50.45130190 [kJ/mol]
      Exch11(S^2)                   0.78601680 [mEh]       0.49323299 [kcal/mol]       2.06368683 [kJ/mol]
      Exch12(S^2)                   1.49706677 [mEh]       0.93942358 [kcal/mol]       3.93054826 [kJ/mol]

    Induction                      -6.53506911 [mEh]      -4.10081778 [kcal/mol]     -17.15782159 [kJ/mol]
      Ind20,r                     -17.06410769 [mEh]     -10.70788924 [kcal/mol]     -44.80180858 [kJ/mol]
      Ind22                        -2.46363237 [mEh]      -1.54595265 [kcal/mol]      -6.46826590 [kJ/mol]
      Exch-Ind20,r                 12.91534074 [mEh]       8.10449867 [kcal/mol]      33.90922244 [kJ/mol]
      Exch-Ind22                    1.86465370 [mEh]       1.17008786 [kcal/mol]       4.89564762 [kJ/mol]
      delta HF,r (2)               -1.78732349 [mEh]      -1.12156242 [kcal/mol]      -4.69261717 [kJ/mol]

    Dispersion                     -6.84870264 [mEh]      -4.29762579 [kcal/mol]     -17.98126630 [kJ/mol]
      Disp20                       -7.99942441 [mEh]      -5.01971460 [kcal/mol]     -21.00248588 [kJ/mol]
      Disp21                        0.49706551 [mEh]       0.31191332 [kcal/mol]       1.30504531 [kJ/mol]
      Disp22 (SDQ)                 -0.04284431 [mEh]      -0.02688521 [kcal/mol]      -0.11248773 [kJ/mol]
      Disp22 (T)                   -1.23119320 [mEh]      -0.77258540 [kcal/mol]      -3.23249731 [kJ/mol]
      Est. Disp22 (T)              -1.41908831 [mEh]      -0.89049136 [kcal/mol]      -3.72581583 [kJ/mol]
      Exch-Disp20                   2.11558888 [mEh]       1.32755206 [kcal/mol]       5.55447783 [kJ/mol]

  Total HF                        -13.37511956 [mEh]      -8.39301424 [kcal/mol]     -35.11637156 [kJ/mol]
  Total SAPT0                     -19.25895509 [mEh]     -12.08517677 [kcal/mol]     -50.56437961 [kJ/mol]
  Total SAPT2                     -17.64118045 [mEh]     -11.07000786 [kcal/mol]     -46.31691288 [kJ/mol]
  Total SAPT2+                    -18.60604756 [mEh]     -11.67547111 [kcal/mol]     -48.85017114 [kJ/mol]

  Special recipe for scaled SAPT0 (see Manual):
    Electrostatics sSAPT0         -26.88362838 [mEh]     -16.86973150 [kcal/mol]     -70.58295659 [kJ/mol]
    Exchange sSAPT0                19.44459926 [mEh]      12.20167025 [kcal/mol]      51.05178833 [kJ/mol]
    Induction sSAPT0               -5.46941302 [mEh]      -3.43210848 [kcal/mol]     -14.35994190 [kJ/mol]
    Dispersion sSAPT0              -5.80739174 [mEh]      -3.64419333 [kcal/mol]     -15.24730491 [kJ/mol]
  Total sSAPT0                    -18.71583388 [mEh]     -11.74436307 [kcal/mol]     -49.13841507 [kJ/mol]
  --------------------------------------------------------------------------------------------------------

*** Psi4 exiting successfully. Buy a developer a beer!
