                               Psi4 1.9 release

  ==> Input File <==

--------------------------------------------------------------------------
MEMORY 60 GB

molecule dimer {
0 1
O      0.000000     0.000000     0.000000
H     -0.705476     0.620454     0.189032
H      0.743246     0.614329    -0.199152
--
-1 1
Br     3.212066     0.000000     0.000000

units ang
no_reorient
no_com
symmetry c1
}

set {
basis        aug-cc-pVTZ
scf_type     df
}

energy("sapt2+")
--------------------------------------------------------------------------

  //              Dimer HF             //
    Molecular point group: c1
  Charge       = -1
  Multiplicity = 1
  Basis Set: AUG-CC-PVTZ
    Blend: AUG-CC-PVTZ
  Basis Set: (AUG-CC-PVTZ AUX)
    Blend: AUG-CC-PVTZ-JKFIT
  @DF-RHF Final Energy: -2648.59426517711790
    Total Energy =                      -2648.5942651771179044
 Dipole X            :       -218.2905162          212.5187512           -5.7717650
 Dipole Y            :         -1.6802741            2.3334017            0.6531276
 Dipole Z            :          0.0486601           -0.0191240            0.0295360
 Magnitude           :                                                    5.8086762
  //            Monomer A HF           //
    Molecular point group: c1
  Multiplicity = 1
  Basis Set: AUG-CC-PVTZ
    Blend: AUG-CC-PVTZ
  Basis Set: (AUG-CC-PVTZ AUX)
    Blend: AUG-CC-PVTZ-JKFIT
  @DF-RHF Final Energy:   -76.05853990033823
    Total Energy =                        -76.0585399003382179
  //            Monomer B HF           //
    Molecular point group: c1

    Geometry (in Angstrom), charge = -1, multiplicity = 1:

       Center              X                  Y                   Z               Mass
    ------------   -----------------  -----------------  -----------------  -----------------
      Gh(O)           0.000000000000     0.000000000000     0.000000000000    15.994914619570
      Gh(H)          -0.705476000000     0.620454000000     0.189032000000     1.007825032230
      Gh(H)           0.743246000000     0.614329000000    -0.199152000000     1.007825032230
         BR           3.212066000000     0.000000000000     0.000000000000    78.918337600000

  Charge       = -1
  Multiplicity = 1
  Basis Set: AUG-CC-PVTZ
    Blend: AUG-CC-PVTZ
  Basis Set: (AUG-CC-PVTZ AUX)
    Blend: AUG-CC-PVTZ-JKFIT

    Orbital Energies [Eh]
    ---------------------

    Doubly Occupied:

       1A   -489.720677     2A    -64.860676     3A    -58.215160
       4A    -58.215160     5A    -58.215156     6A     -9.532921
       7A     -7.140270     8A     -7.140269     9A     -7.140252
      10A     -2.881941    11A     -2.881941    12A     -2.881939
      13A     -2.881936    14A     -2.881920    15A     -0.685999
      16A     -0.139339    17A     -0.139338    18A     -0.139337

  @DF-RHF Final Energy: -2572.53367951144037

   => Energetics <=

    Nuclear Repulsion Energy =              0.0000000000000000
    One-Electron Energy =               -3593.6788878613724592
    Two-Electron Energy =                1021.1452083499323180
    Total Energy =                      -2572.5336795114399138
 Dipole X            :       -218.5173350          212.4473763           -6.0699587
 Dipole Y            :          0.0001038            0.0000000            0.0001038
 Dipole Z            :         -0.0000542            0.0000000           -0.0000542
 Magnitude           :                                                    6.0699587

    SAPT Results
  --------------------------------------------------------------------------------------------------------
    Electrostatics                -12.27499045 [mEh]      -7.70267280 [kcal/mol]     -32.22798298 [kJ/mol]
      Elst10,r                    -11.34833952 [mEh]      -7.12119056 [kcal/mol]     -29.79506129 [kJ/mol]
      Elst12,r                     -0.92665093 [mEh]      -0.58148224 [kcal/mol]      -2.43292168 [kJ/mol]

    Exchange                       16.67494777 [mEh]      10.46368770 [kcal/mol]      43.78006933 [kJ/mol]
      Exch10                       15.18933431 [mEh]       9.53145118 [kcal/mol]      39.87959173 [kJ/mol]
      Exch10(S^2)                  15.04933351 [mEh]       9.44359935 [kcal/mol]      39.51201967 [kJ/mol]
      Exch11(S^2)                   0.34954059 [mEh]       0.21934003 [kcal/mol]       0.91771869 [kJ/mol]
      Exch12(S^2)                   1.13607287 [mEh]       0.71289649 [kcal/mol]       2.98275890 [kJ/mol]

    Induction                      -6.31269683 [mEh]      -3.96127707 [kcal/mol]     -16.57398325 [kJ/mol]
      Ind20,r                     -13.66612277 [mEh]      -8.57562151 [kcal/mol]     -35.88040038 [kJ/mol]
      Ind22                        -1.48705986 [mEh]      -0.93314415 [kcal/mol]      -3.90427512 [kJ/mol]
      Exch-Ind20,r                  9.75175228 [mEh]       6.11931694 [kcal/mol]      25.60322208 [kJ/mol]
      Exch-Ind22                    1.06112316 [mEh]       0.66586484 [kcal/mol]       2.78597847 [kJ/mol]
      delta HF,r (2)               -1.97238964 [mEh]      -1.23769319 [kcal/mol]      -5.17850829 [kJ/mol]

    Dispersion                     -5.51156924 [mEh]      -3.45856191 [kcal/mol]     -14.47062304 [kJ/mol]
      Disp20                       -6.60836573 [mEh]      -4.14681210 [kcal/mol]     -17.35026184 [kJ/mol]
      Disp21                        0.50587362 [mEh]       0.31744049 [kcal/mol]       1.32817100 [kJ/mol]
      Disp22 (SDQ)                  0.03512894 [mEh]       0.02204374 [kcal/mol]       0.09223102 [kJ/mol]
      Disp22 (T)                   -0.97273982 [mEh]      -0.61040345 [kcal/mol]      -2.55392805 [kJ/mol]
      Est. Disp22 (T)              -1.12453409 [mEh]      -0.70565579 [kcal/mol]      -2.95246384 [kJ/mol]
      Exch-Disp20                   1.68032803 [mEh]       1.05442176 [kcal/mol]       4.41170062 [kJ/mol]

  Total HF                         -2.04576534 [mEh]      -1.28373713 [kcal/mol]      -5.37115616 [kJ/mol]
  Total SAPT0                      -6.97380305 [mEh]      -4.37612748 [kcal/mol]     -18.30971737 [kJ/mol]
  Total SAPT2                      -6.84077722 [mEh]      -4.29265251 [kcal/mol]     -17.96045811 [kJ/mol]
  Total SAPT2+                     -7.42430875 [mEh]      -4.65882408 [kcal/mol]     -19.49251993 [kJ/mol]

  Special recipe for scaled SAPT0 (see Manual):
    Electrostatics sSAPT0         -11.34833952 [mEh]      -7.12119056 [kcal/mol]     -29.79506129 [kJ/mol]
    Exchange sSAPT0                15.18933431 [mEh]       9.53145118 [kcal/mol]      39.87959173 [kJ/mol]
    Induction sSAPT0               -5.61206494 [mEh]      -3.52162392 [kcal/mol]     -14.73447446 [kJ/mol]
    Dispersion sSAPT0              -4.88070488 [mEh]      -3.06268855 [kcal/mol]     -12.81428889 [kJ/mol]
  Total sSAPT0                     -6.65177502 [mEh]      -4.17405184 [kcal/mol]     -17.46423291 [kJ/mol]
  --------------------------------------------------------------------------------------------------------

*** Psi4 exiting successfully. Buy a developer a beer!
