                               Psi4 1.9 release

  ==> Input File <==

--------------------------------------------------------------------------
MEMORY 60 GB

molecule dimer {
0 1
O      0.000000     0.000000     0.000000
H     -0.836551     0.410281     0.224153
H      0.564339     0.792548    -0.151214
--
-1 1
Br     3.212066     0.000000     0.000000

units ang
no_reorient
no_com
symmetry c1
}

set {
basis        aug-cc-pVTZ
scf_type     df
}

energy("sapt2+")
--------------------------------------------------------------------------

  //              Dimer HF             //
    Molecular point group: c1
  Charge       = -1
  Multiplicity = 1
  Basis Set: AUG-CC-PVTZ
    Blend: AUG-CC-PVTZ
  Basis Set: (AUG-CC-PVTZ AUX)
    Blend: AUG-CC-PVTZ-JKFIT
  @DF-RHF Final Energy: -2648.58844743196460
    Total Energy =                      -2648.5884474319650508
 Dipole X            :       -218.0122490          211.9329702           -6.0792789
 Dipole Y            :         -1.6387816            2.2730174            0.6342357
 Dipole Z            :         -0.0687626            0.1378347            0.0690722
 Magnitude           :                                                    6.1126637
  //            Monomer A HF           //
    Molecular point group: c1
  Multiplicity = 1
  Basis Set: AUG-CC-PVTZ
    Blend: AUG-CC-PVTZ
  Basis Set: (AUG-CC-PVTZ AUX)
    Blend: AUG-CC-PVTZ-JKFIT
  @DF-RHF Final Energy:   -76.05853792715330
    Total Energy =                        -76.0585379271532958
  //            Monomer B HF           //
    Molecular point group: c1

    Geometry (in Angstrom), charge = -1, multiplicity = 1:

       Center              X                  Y                   Z               Mass
    ------------   -----------------  -----------------  -----------------  -----------------
      Gh(O)           0.000000000000     0.000000000000     0.000000000000    15.994914619570
      Gh(H)          -0.836551000000     0.410281000000     0.224153000000     1.007825032230
      Gh(H)           0.564339000000     0.792548000000    -0.151214000000     1.007825032230
         BR           3.212066000000     0.000000000000     0.000000000000    78.918337600000

  Charge       = -1
  Multiplicity = 1
  Basis Set: AUG-CC-PVTZ
    Blend: AUG-CC-PVTZ
  Basis Set: (AUG-CC-PVTZ AUX)
    Blend: AUG-CC-PVTZ-JKFIT

    Orbital Energies [Eh]
    ---------------------

    Doubly Occupied:

       1A   -489.720580     2A    -64.860608     3A    -58.215086
       4A    -58.215086     5A    -58.215084     6A     -9.532900
       7A     -7.140247     8A     -7.140245     9A     -7.140234
      10A     -2.881916    11A     -2.881916    12A     -2.881915
      13A     -2.881912    14A     -2.881900    15A     -0.685998
      16A     -0.139338    17A     -0.139337    18A     -0.139336

  @DF-RHF Final Energy: -2572.53367686492538

   => Energetics <=

    Nuclear Repulsion Energy =              0.0000000000000000
    One-Electron Energy =               -3593.6800747552156281
    Two-Electron Energy =                1021.1463978902899044
    Total Energy =                      -2572.5336768649258374
 Dipole X            :       -218.5172183          212.4473763           -6.0698420
 Dipole Y            :          0.0001173            0.0000000            0.0001173
 Dipole Z            :         -0.0000375            0.0000000           -0.0000375
 Magnitude           :                                                    6.0698420

    SAPT Results
  --------------------------------------------------------------------------------------------------------
    Electrostatics                 -5.31215656 [mEh]      -3.33342857 [kcal/mol]     -13.94706513 [kJ/mol]
      Elst10,r                     -4.06498216 [mEh]      -2.55081482 [kcal/mol]     -10.67260920 [kJ/mol]
      Elst12,r                     -1.24717440 [mEh]      -0.78261375 [kcal/mol]      -3.27445593 [kJ/mol]

    Exchange                       13.39785676 [mEh]       8.40728205 [kcal/mol]      35.17606808 [kJ/mol]
      Exch10                       12.13459313 [mEh]       7.61457215 [kcal/mol]      31.85936986 [kJ/mol]
      Exch10(S^2)                  12.05032324 [mEh]       7.56169200 [kcal/mol]      31.63811931 [kJ/mol]
      Exch11(S^2)                   0.17358248 [mEh]       0.10892465 [kcal/mol]       0.45574073 [kJ/mol]
      Exch12(S^2)                   1.08968116 [mEh]       0.68378525 [kcal/mol]       2.86095750 [kJ/mol]

    Induction                      -4.64848429 [mEh]      -2.91696793 [kcal/mol]     -12.20459383 [kJ/mol]
      Ind20,r                     -11.46481177 [mEh]      -7.19427800 [kcal/mol]     -30.10085916 [kJ/mol]
      Ind22                        -1.31101533 [mEh]      -0.82267454 [kcal/mol]      -3.44207027 [kJ/mol]
      Exch-Ind20,r                  8.43700486 [mEh]       5.29430048 [kcal/mol]      22.15135321 [kJ/mol]
      Exch-Ind22                    0.96478188 [mEh]       0.60540977 [kcal/mol]       2.53303448 [kJ/mol]
      delta HF,r (2)               -1.27444394 [mEh]      -0.79972564 [kcal/mol]      -3.34605209 [kJ/mol]

    Dispersion                     -4.77492556 [mEh]      -2.99631103 [kcal/mol]     -12.53656534 [kJ/mol]
      Disp20                       -5.76737531 [mEh]      -3.61908265 [kcal/mol]     -15.14224179 [kJ/mol]
      Disp21                        0.50038104 [mEh]       0.31399384 [kcal/mol]       1.31375024 [kJ/mol]
      Disp22 (SDQ)                  0.00468554 [mEh]       0.00294022 [kcal/mol]       0.01230189 [kJ/mol]
      Disp22 (T)                   -0.84486293 [mEh]      -0.53015949 [kcal/mol]      -2.21818732 [kJ/mol]
      Est. Disp22 (T)              -0.98742606 [mEh]      -0.61961920 [kcal/mol]      -2.59248675 [kJ/mol]
      Exch-Disp20                   1.47480922 [mEh]       0.92545676 [kcal/mol]       3.87211108 [kJ/mol]

  Total HF                          3.76736011 [mEh]       2.36405416 [kcal/mol]       9.89120262 [kJ/mol]
  Total SAPT0                      -0.52520598 [mEh]      -0.32957173 [kcal/mol]      -1.37892810 [kJ/mol]
  Total SAPT2                      -0.85535018 [mEh]      -0.53674034 [kcal/mol]      -2.24572159 [kJ/mol]
  Total SAPT2+                     -1.33770965 [mEh]      -0.83942548 [kcal/mol]      -3.51215621 [kJ/mol]

  Special recipe for scaled SAPT0 (see Manual):
    Electrostatics sSAPT0          -4.06498216 [mEh]      -2.55081482 [kcal/mol]     -10.67260920 [kJ/mol]
    Exchange sSAPT0                12.13459313 [mEh]       7.61457215 [kcal/mol]      31.85936986 [kJ/mol]
    Induction sSAPT0               -4.12400607 [mEh]      -2.58785288 [kcal/mol]     -10.82757645 [kJ/mol]
    Dispersion sSAPT0              -4.26140846 [mEh]      -2.67407418 [kcal/mol]     -11.18832638 [kJ/mol]
  Total sSAPT0                     -0.31580358 [mEh]      -0.19816974 [kcal/mol]      -0.82914217 [kJ/mol]
  --------------------------------------------------------------------------------------------------------

*** Psi4 exiting successfully. Buy a developer a beer!
