                               Psi4 1.9 release

  ==> Input File <==

--------------------------------------------------------------------------
MEMORY 60 GB

molecule dimer {
0 1
O      0.000000     0.000000     0.000000
H      0.166282     0.942740    -0.044555
H      0.885519    -0.359212    -0.237274
--
-1 1
Br     3.212066     0.000000     0.000000

units ang
no_reorient
no_com
symmetry c1
}

set {
basis        aug-cc-pVTZ
scf_type     df
}

energy("sapt2+")
--------------------------------------------------------------------------

  //              Dimer HF             //
    Molecular point group: c1
  Charge       = -1
  Multiplicity = 1
  Basis Set: AUG-CC-PVTZ
    Blend: AUG-CC-PVTZ
  Basis Set: (AUG-CC-PVTZ AUX)
    Blend: AUG-CC-PVTZ-JKFIT
  @DF-RHF Final Energy: -2648.60616024782121
    Total Energy =                      -2648.6061602478212080
 Dipole X            :       -219.3831399          214.4349921           -4.9481478
 Dipole Y            :         -0.7405944            1.1027081            0.3621137
 Dipole Z            :          0.4113805           -0.5325796           -0.1211991
 Magnitude           :                                                    4.9628602
  //            Monomer A HF           //
    Molecular point group: c1
  Multiplicity = 1
  Basis Set: AUG-CC-PVTZ
    Blend: AUG-CC-PVTZ
  Basis Set: (AUG-CC-PVTZ AUX)
    Blend: AUG-CC-PVTZ-JKFIT
  @DF-RHF Final Energy:   -76.05855055971051
    Total Energy =                        -76.0585505597105112
  //            Monomer B HF           //
    Molecular point group: c1

    Geometry (in Angstrom), charge = -1, multiplicity = 1:

       Center              X                  Y                   Z               Mass
    ------------   -----------------  -----------------  -----------------  -----------------
      Gh(O)           0.000000000000     0.000000000000     0.000000000000    15.994914619570
      Gh(H)           0.166282000000     0.942740000000    -0.044555000000     1.007825032230
      Gh(H)           0.885519000000    -0.359212000000    -0.237274000000     1.007825032230
         BR           3.212066000000     0.000000000000     0.000000000000    78.918337600000

  Charge       = -1
  Multiplicity = 1
  Basis Set: AUG-CC-PVTZ
    Blend: AUG-CC-PVTZ
  Basis Set: (AUG-CC-PVTZ AUX)
    Blend: AUG-CC-PVTZ-JKFIT

    Orbital Energies [Eh]
    ---------------------

    Doubly Occupied:

       1A   -489.720784     2A    -64.860749     3A    -58.215237
       4A    -58.215237     5A    -58.215233     6A     -9.532944
       7A     -7.140295     8A     -7.140293     9A     -7.140270
      10A     -2.881968    11A     -2.881967    12A     -2.881963
      13A     -2.881960    14A     -2.881945    15A     -0.685999
      16A     -0.139340    17A     -0.139340    18A     -0.139336

  @DF-RHF Final Energy: -2572.53368162155175

   => Energetics <=

    Nuclear Repulsion Energy =              0.0000000000000000
    One-Electron Energy =               -3593.6776458962867764
    Two-Electron Energy =                1021.1439642747347989
    Total Energy =                      -2572.5336816215522049
 Dipole X            :       -218.5174850          212.4473763           -6.0701087
 Dipole Y            :         -0.0001272            0.0000000           -0.0001272
 Dipole Z            :         -0.0000458            0.0000000           -0.0000458
 Magnitude           :                                                    6.0701087

    SAPT Results
  --------------------------------------------------------------------------------------------------------
    Electrostatics                -27.79143655 [mEh]     -17.43938973 [kcal/mol]     -72.96640662 [kJ/mol]
      Elst10,r                    -27.64078163 [mEh]     -17.34485233 [kcal/mol]     -72.57086217 [kJ/mol]
      Elst12,r                     -0.15065492 [mEh]      -0.09453739 [kcal/mol]      -0.39554445 [kJ/mol]

    Exchange                       24.21782828 [mEh]      15.19691668 [kcal/mol]      63.58389938 [kJ/mol]
      Exch10                       21.79861280 [mEh]      13.67883604 [kcal/mol]      57.23225001 [kJ/mol]
      Exch10(S^2)                  21.49191726 [mEh]      13.48638169 [kcal/mol]      56.42702099 [kJ/mol]
      Exch11(S^2)                   0.86801240 [mEh]       0.54468600 [kcal/mol]       2.27896624 [kJ/mol]
      Exch12(S^2)                   1.55120308 [mEh]       0.97339463 [kcal/mol]       4.07268313 [kJ/mol]

    Induction                      -8.79232353 [mEh]      -5.51726631 [kcal/mol]     -23.08424224 [kJ/mol]
      Ind20,r                     -18.87834288 [mEh]     -11.84633900 [kcal/mol]     -49.56508239 [kJ/mol]
      Ind22                        -2.54988792 [mEh]      -1.60007882 [kcal/mol]      -6.69472980 [kJ/mol]
      Exch-Ind20,r                 13.64825083 [mEh]       8.56440669 [kcal/mol]      35.83347761 [kJ/mol]
      Exch-Ind22                    1.84346211 [mEh]       1.15678994 [kcal/mol]       4.84000911 [kJ/mol]
      delta HF,r (2)               -2.85580568 [mEh]      -1.79204512 [kcal/mol]      -7.49791677 [kJ/mol]

    Dispersion                     -7.23612380 [mEh]      -4.54073624 [kcal/mol]     -18.99844042 [kJ/mol]
      Disp20                       -8.47528063 [mEh]      -5.31831889 [kcal/mol]     -22.25184622 [kJ/mol]
      Disp21                        0.53324741 [mEh]       0.33461780 [kcal/mol]       1.40004087 [kJ/mol]
      Disp22 (SDQ)                 -0.01064250 [mEh]      -0.00667827 [kcal/mol]      -0.02794189 [kJ/mol]
      Disp22 (T)                   -1.28381472 [mEh]      -0.80560590 [kcal/mol]      -3.37065509 [kJ/mol]
      Est. Disp22 (T)              -1.48538819 [mEh]      -0.93209516 [kcal/mol]      -3.89988616 [kJ/mol]
      Exch-Disp20                   2.20194012 [mEh]       1.38173828 [kcal/mol]       5.78119298 [kJ/mol]

  Total HF                        -13.92806656 [mEh]      -8.73999372 [kcal/mol]     -36.56813371 [kJ/mol]
  Total SAPT0                     -20.20140707 [mEh]     -12.67657432 [kcal/mol]     -53.03878695 [kJ/mol]
  Total SAPT2                     -18.63927232 [mEh]     -11.69631996 [kcal/mol]     -48.93740272 [kJ/mol]
  Total SAPT2+                    -19.60205560 [mEh]     -12.30047560 [kcal/mol]     -51.46518990 [kJ/mol]

  Special recipe for scaled SAPT0 (see Manual):
    Electrostatics sSAPT0         -27.64078163 [mEh]     -17.34485233 [kcal/mol]     -72.57086217 [kJ/mol]
    Exchange sSAPT0                21.79861280 [mEh]      13.67883604 [kcal/mol]      57.23225001 [kJ/mol]
    Induction sSAPT0               -7.49322723 [mEh]      -4.70207108 [kcal/mol]     -19.67346538 [kJ/mol]
    Dispersion sSAPT0              -6.17772204 [mEh]      -3.87657910 [kcal/mol]     -16.21960697 [kJ/mol]
  Total sSAPT0                    -19.51311810 [mEh]     -12.24466647 [kcal/mol]     -51.23168451 [kJ/mol]
  --------------------------------------------------------------------------------------------------------

*** Psi4 exiting successfully. Buy a developer a beer!
