                               Psi4 1.9 release

  ==> Input File <==

--------------------------------------------------------------------------
MEMORY 60 GB

molecule dimer {
0 1
O      0.000000     0.000000     0.000000
H     -0.318676     0.889835     0.183988
H     -0.661291    -0.586632     0.381797
--
1 1
Li     1.828878     0.000000     0.000000

units ang
no_reorient
no_com
symmetry c1
}

set {
basis        aug-cc-pVTZ
scf_type     df
}

energy("sapt2+")
--------------------------------------------------------------------------

  //              Dimer HF             //
    Molecular point group: c1
  Charge       = 1
  Multiplicity = 1
  Basis Set: AUG-CC-PVTZ
    Blend: AUG-CC-PVTZ
  Basis Set: (AUG-CC-PVTZ AUX)
    Blend: AUG-CC-PVTZ-JKFIT + DEF2-UNIVERSAL-JKFIT
  @DF-RHF Final Energy:   -83.34966168931399
    Total Energy =                        -83.3496616893139901
 Dipole X            :         -6.1648541            8.5163664            2.3515123
 Dipole Y            :         -0.3617141            0.5729706            0.2112565
 Dipole Z            :         -0.6563818            1.0691787            0.4127969
 Magnitude           :                                                    2.3967980
  //            Monomer A HF           //
    Molecular point group: c1
  Multiplicity = 1
  Basis Set: AUG-CC-PVTZ
    Blend: AUG-CC-PVTZ
  Basis Set: (AUG-CC-PVTZ AUX)
    Blend: AUG-CC-PVTZ-JKFIT + DEF2-UNIVERSAL-JKFIT
  @DF-RHF Final Energy:   -76.06026535500902
    Total Energy =                        -76.0602653550090224
  //            Monomer B HF           //
    Molecular point group: c1

    Geometry (in Angstrom), charge = 1, multiplicity = 1:

       Center              X                  Y                   Z               Mass
    ------------   -----------------  -----------------  -----------------  -----------------
      Gh(O)           0.000000000000     0.000000000000     0.000000000000    15.994914619570
      Gh(H)          -0.318676000000     0.889835000000     0.183988000000     1.007825032230
      Gh(H)          -0.661291000000    -0.586632000000     0.381797000000     1.007825032230
         LI           1.828878000000     0.000000000000     0.000000000000     7.016003436600

  Charge       = 1
  Multiplicity = 1
  Basis Set: AUG-CC-PVTZ
    Blend: AUG-CC-PVTZ
  Basis Set: (AUG-CC-PVTZ AUX)
    Blend: AUG-CC-PVTZ-JKFIT + DEF2-UNIVERSAL-JKFIT

    Orbital Energies [Eh]
    ---------------------

    Doubly Occupied:

       1A     -2.792368

  @DF-RHF Final Energy:    -7.23638356366425

   => Energetics <=

    Nuclear Repulsion Energy =              0.0000000000000000
    One-Electron Energy =                  -8.8880316505571297
    Two-Electron Energy =                   1.6516480868928809
    Total Energy =                         -7.2363835636642486
 Dipole X            :         -6.9121738           10.3682356            3.4560618
 Dipole Y            :          0.0000014            0.0000000            0.0000014
 Dipole Z            :          0.0000154            0.0000000            0.0000154
 Magnitude           :                                                    3.4560618

    SAPT Results
  --------------------------------------------------------------------------------------------------------
    Electrostatics                -50.43824054 [mEh]     -31.65047378 [kcal/mol]    -132.42558229 [kJ/mol]
      Elst10,r                    -53.86604965 [mEh]     -33.80145647 [kcal/mol]    -141.42529388 [kJ/mol]
      Elst12,r                      3.42780912 [mEh]       2.15098270 [kcal/mol]       8.99971160 [kJ/mol]

    Exchange                       22.62385012 [mEh]      14.19668028 [kcal/mol]      59.39891030 [kJ/mol]
      Exch10                       21.21781659 [mEh]      13.31438092 [kcal/mol]      55.70736978 [kJ/mol]
      Exch10(S^2)                  21.10097139 [mEh]      13.24105945 [kcal/mol]      55.40059275 [kJ/mol]
      Exch11(S^2)                  -0.04863361 [mEh]      -0.03051805 [kcal/mol]      -0.12768753 [kJ/mol]
      Exch12(S^2)                   1.45466714 [mEh]       0.91281741 [kcal/mol]       3.81922805 [kJ/mol]

    Induction                     -21.95847813 [mEh]     -13.77915306 [kcal/mol]     -57.65197639 [kJ/mol]
      Ind20,r                     -34.44337245 [mEh]     -21.61354252 [kcal/mol]     -90.43106190 [kJ/mol]
      Ind22                        -2.92214544 [mEh]      -1.83367395 [kcal/mol]      -7.67209179 [kJ/mol]
      Exch-Ind20,r                 15.65557103 [mEh]       9.82401914 [kcal/mol]      41.10369609 [kJ/mol]
      Exch-Ind22                    1.32820488 [mEh]       0.83346115 [kcal/mol]       3.48720144 [kJ/mol]
      delta HF,r (2)               -1.57673616 [mEh]      -0.98941688 [kcal/mol]      -4.13972023 [kJ/mol]

    Dispersion                     -0.95804046 [mEh]      -0.60117947 [kcal/mol]      -2.51533489 [kJ/mol]
      Disp20                       -0.94341674 [mEh]      -0.59200294 [kcal/mol]      -2.47694030 [kJ/mol]
      Disp21                       -0.04682604 [mEh]      -0.02938378 [kcal/mol]      -0.12294175 [kJ/mol]
      Disp22 (SDQ)                 -0.01434363 [mEh]      -0.00900077 [kcal/mol]      -0.03765921 [kJ/mol]
      Disp22 (T)                   -0.04830717 [mEh]      -0.03031321 [kcal/mol]      -0.12683047 [kJ/mol]
      Est. Disp22 (T)              -0.06179649 [mEh]      -0.03877788 [kcal/mol]      -0.16224666 [kJ/mol]
      Exch-Disp20                   0.10834244 [mEh]       0.06798591 [kcal/mol]       0.28445304 [kJ/mol]

  Total HF                        -53.01277064 [mEh]     -33.26601581 [kcal/mol]    -139.18501014 [kJ/mol]
  Total SAPT0                     -53.84784494 [mEh]     -33.79003284 [kcal/mol]    -141.37749740 [kJ/mol]
  Total SAPT2                     -50.60794285 [mEh]     -31.75696358 [kcal/mol]    -132.87113564 [kJ/mol]
  Total SAPT2+                    -50.73090901 [mEh]     -31.83412602 [kcal/mol]    -133.19398326 [kJ/mol]

  Special recipe for scaled SAPT0 (see Manual):
    Electrostatics sSAPT0         -53.86604965 [mEh]     -33.80145647 [kcal/mol]    -141.42529388 [kJ/mol]
    Exchange sSAPT0                21.21781659 [mEh]      13.31438092 [kcal/mol]      55.70736978 [kJ/mol]
    Induction sSAPT0              -20.10301978 [mEh]     -12.61483536 [kcal/mol]     -52.78047116 [kJ/mol]
    Dispersion sSAPT0              -0.83326449 [mEh]      -0.52288136 [kcal/mol]      -2.18773563 [kJ/mol]
  Total sSAPT0                    -53.58451734 [mEh]     -33.62479228 [kcal/mol]    -140.68613089 [kJ/mol]
  --------------------------------------------------------------------------------------------------------

*** Psi4 exiting successfully. Buy a developer a beer!
