                               Psi4 1.9 release

  ==> Input File <==

--------------------------------------------------------------------------
MEMORY 60 GB

molecule dimer {
0 1
O      0.000000     0.000000     0.000000
H     -0.507268     0.764276     0.292871
H     -0.507268    -0.764276     0.292871
--
1 1
Li     1.828878     0.000000     0.000000

units ang
no_reorient
no_com
symmetry c1
}

set {
basis        aug-cc-pVTZ
scf_type     df
}

energy("sapt2+")
--------------------------------------------------------------------------

  //              Dimer HF             //
    Molecular point group: c1
  Charge       = 1
  Multiplicity = 1
  Basis Set: AUG-CC-PVTZ
    Blend: AUG-CC-PVTZ
  Basis Set: (AUG-CC-PVTZ AUX)
    Blend: AUG-CC-PVTZ-JKFIT + DEF2-UNIVERSAL-JKFIT
  @DF-RHF Final Energy:   -83.35134612528677
    Total Energy =                        -83.3513461252867671
 Dipole X            :         -6.1216955            8.4510404            2.3293449
 Dipole Y            :          0.0000000            0.0000000            0.0000000
 Dipole Z            :         -0.6803882            1.1068920            0.4265038
 Magnitude           :                                                    2.3680695
  //            Monomer A HF           //
    Molecular point group: c1
  Multiplicity = 1
  Basis Set: AUG-CC-PVTZ
    Blend: AUG-CC-PVTZ
  Basis Set: (AUG-CC-PVTZ AUX)
    Blend: AUG-CC-PVTZ-JKFIT + DEF2-UNIVERSAL-JKFIT
  @DF-RHF Final Energy:   -76.06026557411714
    Total Energy =                        -76.0602655741171390
  //            Monomer B HF           //
    Molecular point group: c1

    Geometry (in Angstrom), charge = 1, multiplicity = 1:

       Center              X                  Y                   Z               Mass
    ------------   -----------------  -----------------  -----------------  -----------------
      Gh(O)           0.000000000000     0.000000000000     0.000000000000    15.994914619570
      Gh(H)          -0.507268000000     0.764276000000     0.292871000000     1.007825032230
      Gh(H)          -0.507268000000    -0.764276000000     0.292871000000     1.007825032230
         LI           1.828878000000     0.000000000000     0.000000000000     7.016003436600

  Charge       = 1
  Multiplicity = 1
  Basis Set: AUG-CC-PVTZ
    Blend: AUG-CC-PVTZ
  Basis Set: (AUG-CC-PVTZ AUX)
    Blend: AUG-CC-PVTZ-JKFIT + DEF2-UNIVERSAL-JKFIT

    Orbital Energies [Eh]
    ---------------------

    Doubly Occupied:

       1A     -2.792368

  @DF-RHF Final Energy:    -7.23638355239687

   => Energetics <=

    Nuclear Repulsion Energy =              0.0000000000000000
    One-Electron Energy =                  -8.8880318063576720
    Two-Electron Energy =                   1.6516482539608055
    Total Energy =                         -7.2363835523968660
 Dipole X            :         -6.9121720           10.3682356            3.4560637
 Dipole Y            :         -0.0000000            0.0000000           -0.0000000
 Dipole Z            :          0.0000142            0.0000000            0.0000142
 Magnitude           :                                                    3.4560637

    SAPT Results
  --------------------------------------------------------------------------------------------------------
    Electrostatics                -52.40060151 [mEh]     -32.88187388 [kcal/mol]    -137.57776032 [kJ/mol]
      Elst10,r                    -55.92765166 [mEh]     -35.09513126 [kcal/mol]    -146.83802921 [kJ/mol]
      Elst12,r                      3.52705015 [mEh]       2.21325738 [kcal/mol]       9.26026889 [kJ/mol]

    Exchange                       22.99576777 [mEh]      14.43006213 [kcal/mol]      60.37537997 [kJ/mol]
      Exch10                       21.59426703 [mEh]      13.55060714 [kcal/mol]      56.69574027 [kJ/mol]
      Exch10(S^2)                  21.47328250 [mEh]      13.47468820 [kcal/mol]      56.37809544 [kJ/mol]
      Exch11(S^2)                  -0.04452045 [mEh]      -0.02793701 [kcal/mol]      -0.11688843 [kJ/mol]
      Exch12(S^2)                   1.44602120 [mEh]       0.90739200 [kcal/mol]       3.79652813 [kJ/mol]

    Induction                     -21.94528974 [mEh]     -13.77087722 [kcal/mol]     -57.61735028 [kJ/mol]
      Ind20,r                     -34.70101210 [mEh]     -21.77521384 [kcal/mol]     -91.10749471 [kJ/mol]
      Ind22                        -2.92151545 [mEh]      -1.83327862 [kcal/mol]      -7.67043776 [kJ/mol]
      Exch-Ind20,r                 15.91427449 [mEh]       9.98635801 [kcal/mol]      41.78292192 [kJ/mol]
      Exch-Ind22                    1.33983985 [mEh]       0.84076220 [kcal/mol]       3.51774904 [kJ/mol]
      delta HF,r (2)               -1.57687654 [mEh]      -0.98950497 [kcal/mol]      -4.14008877 [kJ/mol]

    Dispersion                     -0.95923084 [mEh]      -0.60192644 [kcal/mol]      -2.51846021 [kJ/mol]
      Disp20                       -0.94607106 [mEh]      -0.59366856 [kcal/mol]      -2.48390924 [kJ/mol]
      Disp21                       -0.04759553 [mEh]      -0.02986665 [kcal/mol]      -0.12496205 [kJ/mol]
      Disp22 (SDQ)                 -0.01420852 [mEh]      -0.00891598 [kcal/mol]      -0.03730446 [kJ/mol]
      Disp22 (T)                   -0.04867350 [mEh]      -0.03054308 [kcal/mol]      -0.12779225 [kJ/mol]
      Est. Disp22 (T)              -0.06188344 [mEh]      -0.03883244 [kcal/mol]      -0.16247494 [kJ/mol]
      Exch-Disp20                   0.11052772 [mEh]       0.06935719 [kcal/mol]       0.29019048 [kJ/mol]

  Total HF                        -54.69699877 [mEh]     -34.32288492 [kcal/mol]    -143.60695049 [kJ/mol]
  Total SAPT0                     -55.53254212 [mEh]     -34.84719628 [kcal/mol]    -145.80066925 [kJ/mol]
  Total SAPT2                     -52.18566683 [mEh]     -32.74700033 [kcal/mol]    -137.01344938 [kJ/mol]
  Total SAPT2+                    -52.30935432 [mEh]     -32.82461540 [kcal/mol]    -137.33819084 [kJ/mol]

  Special recipe for scaled SAPT0 (see Manual):
    Electrostatics sSAPT0         -55.92765166 [mEh]     -35.09513126 [kcal/mol]    -146.83802921 [kJ/mol]
    Exchange sSAPT0                21.59426703 [mEh]      13.55060714 [kcal/mol]      56.69574027 [kJ/mol]
    Induction sSAPT0              -20.09310366 [mEh]     -12.60861291 [kcal/mol]     -52.75443640 [kJ/mol]
    Dispersion sSAPT0              -0.83366460 [mEh]      -0.52313243 [kcal/mol]      -2.18878610 [kJ/mol]
  Total sSAPT0                    -55.26015290 [mEh]     -34.67626946 [kcal/mol]    -145.08551144 [kJ/mol]
  --------------------------------------------------------------------------------------------------------

*** Psi4 exiting successfully. Buy a developer a beer!
