                               Psi4 1.9 release

  ==> Input File <==

--------------------------------------------------------------------------
MEMORY 60 GB

molecule dimer {
0 1
O      0.000000     0.000000     0.000000
H     -0.108366     0.954754     0.062565
H     -0.770248    -0.369011     0.444703
--
1 1
Li     1.828878     0.000000     0.000000

units ang
no_reorient
no_com
symmetry c1
}

set {
basis        aug-cc-pVTZ
scf_type     df
}

energy("sapt2+")
--------------------------------------------------------------------------

  //              Dimer HF             //
    Molecular point group: c1
  Charge       = 1
  Multiplicity = 1
  Basis Set: AUG-CC-PVTZ
    Blend: AUG-CC-PVTZ
  Basis Set: (AUG-CC-PVTZ AUX)
    Blend: AUG-CC-PVTZ-JKFIT + DEF2-UNIVERSAL-JKFIT
  @DF-RHF Final Energy:   -83.34461115401052
    Total Energy =                        -83.3446111540105221
 Dipole X            :         -6.2918957            8.7078958            2.4160001
 Dipole Y            :         -0.6997419            1.1068938            0.4071520
 Dipole Z            :         -0.5858551            0.9585976            0.3727425
 Magnitude           :                                                    2.4782587
  //            Monomer A HF           //
    Molecular point group: c1
  Multiplicity = 1
  Basis Set: AUG-CC-PVTZ
    Blend: AUG-CC-PVTZ
  Basis Set: (AUG-CC-PVTZ AUX)
    Blend: AUG-CC-PVTZ-JKFIT + DEF2-UNIVERSAL-JKFIT
  @DF-RHF Final Energy:   -76.06026485330298
    Total Energy =                        -76.0602648533029821
  //            Monomer B HF           //
    Molecular point group: c1

    Geometry (in Angstrom), charge = 1, multiplicity = 1:

       Center              X                  Y                   Z               Mass
    ------------   -----------------  -----------------  -----------------  -----------------
      Gh(O)           0.000000000000     0.000000000000     0.000000000000    15.994914619570
      Gh(H)          -0.108366000000     0.954754000000     0.062565000000     1.007825032230
      Gh(H)          -0.770248000000    -0.369011000000     0.444703000000     1.007825032230
         LI           1.828878000000     0.000000000000     0.000000000000     7.016003436600

  Charge       = 1
  Multiplicity = 1
  Basis Set: AUG-CC-PVTZ
    Blend: AUG-CC-PVTZ
  Basis Set: (AUG-CC-PVTZ AUX)
    Blend: AUG-CC-PVTZ-JKFIT + DEF2-UNIVERSAL-JKFIT

    Orbital Energies [Eh]
    ---------------------

    Doubly Occupied:

       1A     -2.792368

  @DF-RHF Final Energy:    -7.23638358393632

   => Energetics <=

    Nuclear Repulsion Energy =              0.0000000000000000
    One-Electron Energy =                  -8.8880314336355450
    Two-Electron Energy =                   1.6516478496992228
    Total Energy =                         -7.2363835839363224
 Dipole X            :         -6.9121780           10.3682356            3.4560576
 Dipole Y            :          0.0000053            0.0000000            0.0000053
 Dipole Z            :          0.0000159            0.0000000            0.0000159
 Magnitude           :                                                    3.4560576

    SAPT Results
  --------------------------------------------------------------------------------------------------------
    Electrostatics                -44.66231561 [mEh]     -28.02602617 [kcal/mol]    -117.26089349 [kJ/mol]
      Elst10,r                    -47.82309511 [mEh]     -30.00944525 [kcal/mol]    -125.55951893 [kJ/mol]
      Elst12,r                      3.16077950 [mEh]       1.98341908 [kcal/mol]       8.29862543 [kJ/mol]

    Exchange                       21.65790406 [mEh]      13.59053998 [kcal/mol]      56.86281929 [kJ/mol]
      Exch10                       20.24554823 [mEh]      12.70427331 [kcal/mol]      53.15467955 [kJ/mol]
      Exch10(S^2)                  20.13902677 [mEh]      12.63743009 [kcal/mol]      52.87500749 [kJ/mol]
      Exch11(S^2)                  -0.06027737 [mEh]      -0.03782462 [kcal/mol]      -0.15825822 [kJ/mol]
      Exch12(S^2)                   1.47263321 [mEh]       0.92409129 [kcal/mol]       3.86639797 [kJ/mol]

    Induction                     -22.01405967 [mEh]     -13.81403100 [kcal/mol]     -57.79790569 [kJ/mol]
      Ind20,r                     -33.75025917 [mEh]     -21.17860737 [kcal/mol]     -88.61129325 [kJ/mol]
      Ind22                        -2.92415024 [mEh]      -1.83493198 [kcal/mol]      -7.67735540 [kJ/mol]
      Exch-Ind20,r                 14.94977090 [mEh]       9.38112287 [kcal/mol]      39.25061808 [kJ/mol]
      Exch-Ind22                    1.29526046 [mEh]       0.81278821 [kcal/mol]       3.40070587 [kJ/mol]
      delta HF,r (2)               -1.58468161 [mEh]      -0.99440272 [kcal/mol]      -4.16058099 [kJ/mol]

    Dispersion                     -0.95885022 [mEh]      -0.60168760 [kcal/mol]      -2.51746091 [kJ/mol]
      Disp20                       -0.94051668 [mEh]      -0.59018312 [kcal/mol]      -2.46932619 [kJ/mol]
      Disp21                       -0.04514154 [mEh]      -0.02832674 [kcal/mol]      -0.11851909 [kJ/mol]
      Disp22 (SDQ)                 -0.01459608 [mEh]      -0.00915918 [kcal/mol]      -0.03832201 [kJ/mol]
      Disp22 (T)                   -0.04830618 [mEh]      -0.03031259 [kcal/mol]      -0.12682786 [kJ/mol]
      Est. Disp22 (T)              -0.06186387 [mEh]      -0.03882017 [kcal/mol]      -0.16242357 [kJ/mol]
      Exch-Disp20                   0.10326795 [mEh]       0.06480162 [kcal/mol]       0.27112996 [kJ/mol]

  Total HF                        -47.96271677 [mEh]     -30.09705916 [kcal/mol]    -125.92609553 [kJ/mol]
  Total SAPT0                     -48.79996550 [mEh]     -30.62244067 [kcal/mol]    -128.12429177 [kJ/mol]
  Total SAPT2                     -45.85571994 [mEh]     -28.77489869 [kcal/mol]    -120.39417613 [kJ/mol]
  Total SAPT2+                    -45.97732144 [mEh]     -28.85120478 [kcal/mol]    -120.71344081 [kJ/mol]

  Special recipe for scaled SAPT0 (see Manual):
    Electrostatics sSAPT0         -47.82309511 [mEh]     -30.00944525 [kcal/mol]    -125.55951893 [kJ/mol]
    Exchange sSAPT0                20.24554823 [mEh]      12.70427331 [kcal/mol]      53.15467955 [kJ/mol]
    Induction sSAPT0              -20.14669123 [mEh]     -12.64223961 [kcal/mol]     -52.89513053 [kJ/mol]
    Dispersion sSAPT0              -0.83560140 [mEh]      -0.52434779 [kcal/mol]      -2.19387117 [kJ/mol]
  Total sSAPT0                    -48.55983951 [mEh]     -30.47175934 [kcal/mol]    -127.49384107 [kJ/mol]
  --------------------------------------------------------------------------------------------------------

*** Psi4 exiting successfully. Buy a developer a beer!
