                               Psi4 1.9 release

  ==> Input File <==

--------------------------------------------------------------------------
MEMORY 60 GB

molecule dimer {
0 1
O      0.000000     0.000000     0.000000
H     -0.826714     0.126242     0.477304
H      0.109329    -0.954608    -0.063121
--
1 1
Li     1.828878     0.000000     0.000000

units ang
no_reorient
no_com
symmetry c1
}

set {
basis        aug-cc-pVTZ
scf_type     df
}

energy("sapt2+")
--------------------------------------------------------------------------

  //              Dimer HF             //
    Molecular point group: c1
  Charge       = 1
  Multiplicity = 1
  Basis Set: AUG-CC-PVTZ
    Blend: AUG-CC-PVTZ
  Basis Set: (AUG-CC-PVTZ AUX)
    Blend: AUG-CC-PVTZ-JKFIT + DEF2-UNIVERSAL-JKFIT
  @DF-RHF Final Energy:   -83.33612019921668
    Total Energy =                        -83.3361201992166798
 Dipole X            :         -6.4958233            9.0125744            2.5167511
 Dipole Y            :          0.9924920           -1.5653849           -0.5728929
 Dipole Z            :         -0.4728693            0.7826924            0.3098232
 Magnitude           :                                                    2.5996601
  //            Monomer A HF           //
    Molecular point group: c1
  Multiplicity = 1
  Basis Set: AUG-CC-PVTZ
    Blend: AUG-CC-PVTZ
  Basis Set: (AUG-CC-PVTZ AUX)
    Blend: AUG-CC-PVTZ-JKFIT + DEF2-UNIVERSAL-JKFIT
  @DF-RHF Final Energy:   -76.06026432100788
    Total Energy =                        -76.0602643210078782
  //            Monomer B HF           //
    Molecular point group: c1

    Geometry (in Angstrom), charge = 1, multiplicity = 1:

       Center              X                  Y                   Z               Mass
    ------------   -----------------  -----------------  -----------------  -----------------
      Gh(O)           0.000000000000     0.000000000000     0.000000000000    15.994914619570
      Gh(H)          -0.826714000000     0.126242000000     0.477304000000     1.007825032230
      Gh(H)           0.109329000000    -0.954608000000    -0.063121000000     1.007825032230
         LI           1.828878000000     0.000000000000     0.000000000000     7.016003436600

  Charge       = 1
  Multiplicity = 1
  Basis Set: AUG-CC-PVTZ
    Blend: AUG-CC-PVTZ
  Basis Set: (AUG-CC-PVTZ AUX)
    Blend: AUG-CC-PVTZ-JKFIT + DEF2-UNIVERSAL-JKFIT

    Orbital Energies [Eh]
    ---------------------

    Doubly Occupied:

       1A     -2.792368

  @DF-RHF Final Energy:    -7.23638356990634

   => Energetics <=

    Nuclear Repulsion Energy =              0.0000000000000000
    One-Electron Energy =                  -8.8880308134236170
    Two-Electron Energy =                   1.6516472435172773
    Total Energy =                         -7.2363835699063399
 Dipole X            :         -6.9121807           10.3682356            3.4560549
 Dipole Y            :         -0.0000054            0.0000000           -0.0000054
 Dipole Z            :          0.0000135            0.0000000            0.0000135
 Magnitude           :                                                    3.4560549

    SAPT Results
  --------------------------------------------------------------------------------------------------------
    Electrostatics                -35.32901128 [mEh]     -22.16928928 [kcal/mol]     -92.75630633 [kJ/mol]
      Elst10,r                    -38.12928509 [mEh]     -23.92648762 [kcal/mol]    -100.10842421 [kJ/mol]
      Elst12,r                      2.80027381 [mEh]       1.75719835 [kcal/mol]       7.35211788 [kJ/mol]

    Exchange                       20.59867677 [mEh]      12.92586482 [kcal/mol]      54.08181840 [kJ/mol]
      Exch10                       19.19431933 [mEh]      12.04461722 [kcal/mol]      50.39467844 [kJ/mol]
      Exch10(S^2)                  19.09832061 [mEh]      11.98437712 [kcal/mol]      50.14263386 [kJ/mol]
      Exch11(S^2)                  -0.07859669 [mEh]      -0.04932017 [kcal/mol]      -0.20635558 [kJ/mol]
      Exch12(S^2)                   1.48295413 [mEh]       0.93056777 [kcal/mol]       3.89349553 [kJ/mol]

    Induction                     -22.21609186 [mEh]     -13.94080812 [kcal/mol]     -58.32834116 [kJ/mol]
      Ind20,r                     -32.97393256 [mEh]     -20.69145507 [kcal/mol]     -86.57304800 [kJ/mol]
      Ind22                        -2.92821466 [mEh]      -1.83748244 [kcal/mol]      -7.68802654 [kJ/mol]
      Exch-Ind20,r                 14.06993356 [mEh]       8.82901661 [kcal/mol]      36.94060548 [kJ/mol]
      Exch-Ind22                    1.24946534 [mEh]       0.78405134 [kcal/mol]       3.28047079 [kJ/mol]
      delta HF,r (2)               -1.63334354 [mEh]      -1.02493855 [kcal/mol]      -4.28834288 [kJ/mol]

    Dispersion                     -0.97210686 [mEh]      -0.61000626 [kcal/mol]      -2.55226621 [kJ/mol]
      Disp20                       -0.94885363 [mEh]      -0.59541464 [kcal/mol]      -2.49121487 [kJ/mol]
      Disp21                       -0.04421951 [mEh]      -0.02774816 [kcal/mol]      -0.11609831 [kJ/mol]
      Disp22 (SDQ)                 -0.01448903 [mEh]      -0.00909200 [kcal/mol]      -0.03804094 [kJ/mol]
      Disp22 (T)                   -0.04870748 [mEh]      -0.03056440 [kcal/mol]      -0.12788146 [kJ/mol]
      Est. Disp22 (T)              -0.06254076 [mEh]      -0.03924492 [kcal/mol]      -0.16420073 [kJ/mol]
      Exch-Disp20                   0.09799607 [mEh]       0.06149346 [kcal/mol]       0.25728866 [kJ/mol]

  Total HF                        -39.47230830 [mEh]     -24.76924741 [kcal/mol]    -103.63453117 [kJ/mol]
  Total SAPT0                     -40.32316586 [mEh]     -25.30316859 [kcal/mol]    -105.86845739 [kJ/mol]
  Total SAPT2                     -37.79728394 [mEh]     -23.71815375 [kcal/mol]     -99.23675530 [kJ/mol]
  Total SAPT2+                    -37.91853324 [mEh]     -23.79423884 [kcal/mol]     -99.55509529 [kJ/mol]

  Special recipe for scaled SAPT0 (see Manual):
    Electrostatics sSAPT0         -38.12928509 [mEh]     -23.92648762 [kcal/mol]    -100.10842421 [kJ/mol]
    Exchange sSAPT0                19.19431933 [mEh]      12.04461722 [kcal/mol]      50.39467844 [kJ/mol]
    Induction sSAPT0              -20.32410449 [mEh]     -12.75356811 [kcal/mol]     -53.36092898 [kJ/mol]
    Dispersion sSAPT0              -0.84937237 [mEh]      -0.53298921 [kcal/mol]      -2.23002686 [kJ/mol]
  Total sSAPT0                    -40.10844262 [mEh]     -25.16842772 [kcal/mol]    -105.30470160 [kJ/mol]
  --------------------------------------------------------------------------------------------------------

*** Psi4 exiting successfully. Buy a developer a beer!
