                               Psi4 1.9 release

  ==> Input File <==

--------------------------------------------------------------------------
MEMORY 60 GB

molecule dimer {
0 1
O      0.000000     0.000000     0.000000
H     -0.826841    -0.125130     0.477377
H      0.319573    -0.889406    -0.184505
--
1 1
Li     1.828878     0.000000     0.000000

units ang
no_reorient
no_com
symmetry c1
}

set {
basis        aug-cc-pVTZ
scf_type     df
}

energy("sapt2+")
--------------------------------------------------------------------------

  //              Dimer HF             //
    Molecular point group: c1
  Charge       = 1
  Multiplicity = 1
  Basis Set: AUG-CC-PVTZ
    Blend: AUG-CC-PVTZ
  Basis Set: (AUG-CC-PVTZ AUX)
    Blend: AUG-CC-PVTZ-JKFIT + DEF2-UNIVERSAL-JKFIT
  @DF-RHF Final Energy:   -83.32373473186523
    Total Energy =                        -83.3237347318652155
 Dipole X            :         -6.7652940            9.4096380            2.6443441
 Dipole Y            :          1.2208351           -1.9171952           -0.6963601
 Dipole Z            :         -0.3232913            0.5534479            0.2301565
 Magnitude           :                                                    2.7441656
  //            Monomer A HF           //
    Molecular point group: c1
  Multiplicity = 1
  Basis Set: AUG-CC-PVTZ
    Blend: AUG-CC-PVTZ
  Basis Set: (AUG-CC-PVTZ AUX)
    Blend: AUG-CC-PVTZ-JKFIT + DEF2-UNIVERSAL-JKFIT
  @DF-RHF Final Energy:   -76.06026447634393
    Total Energy =                        -76.0602644763439315
  //            Monomer B HF           //
    Molecular point group: c1

    Geometry (in Angstrom), charge = 1, multiplicity = 1:

       Center              X                  Y                   Z               Mass
    ------------   -----------------  -----------------  -----------------  -----------------
      Gh(O)           0.000000000000     0.000000000000     0.000000000000    15.994914619570
      Gh(H)          -0.826841000000    -0.125130000000     0.477377000000     1.007825032230
      Gh(H)           0.319573000000    -0.889406000000    -0.184505000000     1.007825032230
         LI           1.828878000000     0.000000000000     0.000000000000     7.016003436600

  Charge       = 1
  Multiplicity = 1
  Basis Set: AUG-CC-PVTZ
    Blend: AUG-CC-PVTZ
  Basis Set: (AUG-CC-PVTZ AUX)
    Blend: AUG-CC-PVTZ-JKFIT + DEF2-UNIVERSAL-JKFIT

    Orbital Energies [Eh]
    ---------------------

    Doubly Occupied:

       1A     -2.792368

  @DF-RHF Final Energy:    -7.23638360498908

   => Energetics <=

    Nuclear Repulsion Energy =              0.0000000000000000
    One-Electron Energy =                  -8.8880316775162242
    Two-Electron Energy =                   1.6516480725271425
    Total Energy =                         -7.2363836049890820
 Dipole X            :         -6.9121762           10.3682356            3.4560594
 Dipole Y            :          0.0000070            0.0000000            0.0000070
 Dipole Z            :          0.0000133            0.0000000            0.0000133
 Magnitude           :                                                    3.4560594

    SAPT Results
  --------------------------------------------------------------------------------------------------------
    Electrostatics                -22.62700824 [mEh]     -14.19866203 [kcal/mol]     -59.40720195 [kJ/mol]
      Elst10,r                    -25.03716436 [mEh]     -15.71105783 [kcal/mol]     -65.73506596 [kJ/mol]
      Elst12,r                      2.41015612 [mEh]       1.51239580 [kcal/mol]       6.32786401 [kJ/mol]

    Exchange                       20.44795112 [mEh]      12.83128305 [kcal/mol]      53.68608827 [kJ/mol]
      Exch10                       19.06708502 [mEh]      11.96477649 [kcal/mol]      50.06062481 [kJ/mol]
      Exch10(S^2)                  18.97207944 [mEh]      11.90515959 [kcal/mol]      49.81118772 [kJ/mol]
      Exch11(S^2)                  -0.10420250 [mEh]      -0.06538806 [kcal/mol]      -0.27358363 [kJ/mol]
      Exch12(S^2)                   1.48506861 [mEh]       0.93189462 [kcal/mol]       3.89904709 [kJ/mol]

    Induction                     -22.84629657 [mEh]     -14.33626754 [kcal/mol]     -59.98294338 [kJ/mol]
      Ind20,r                     -32.97463991 [mEh]     -20.69189894 [kcal/mol]     -86.57490515 [kJ/mol]
      Ind22                        -2.95128289 [mEh]      -1.85195797 [kcal/mol]      -7.74859216 [kJ/mol]
      Exch-Ind20,r                 13.64844392 [mEh]       8.56452786 [kcal/mol]      35.83398458 [kJ/mol]
      Exch-Ind22                    1.22155751 [mEh]       0.76653891 [kcal/mol]       3.20719880 [kJ/mol]
      delta HF,r (2)               -1.79037521 [mEh]      -1.12347740 [kcal/mol]      -4.70062946 [kJ/mol]

    Dispersion                     -1.02082542 [mEh]      -0.64057763 [kcal/mol]      -2.68017678 [kJ/mol]
      Disp20                       -0.99103303 [mEh]      -0.62188261 [kcal/mol]      -2.60195685 [kJ/mol]
      Disp21                       -0.04701283 [mEh]      -0.02950099 [kcal/mol]      -0.12343216 [kJ/mol]
      Disp22 (SDQ)                 -0.01358428 [mEh]      -0.00852427 [kcal/mol]      -0.03566553 [kJ/mol]
      Disp22 (T)                   -0.05064757 [mEh]      -0.03178183 [kcal/mol]      -0.13297518 [kJ/mol]
      Est. Disp22 (T)              -0.06523577 [mEh]      -0.04093606 [kcal/mol]      -0.17127650 [kJ/mol]
      Exch-Disp20                   0.09604048 [mEh]       0.06026631 [kcal/mol]       0.25215425 [kJ/mol]

  Total HF                        -27.08665053 [mEh]     -16.99712982 [kcal/mol]     -71.11599117 [kJ/mol]
  Total SAPT0                     -27.98164308 [mEh]     -17.55874612 [kcal/mol]     -73.46579377 [kJ/mol]
  Total SAPT2                     -25.92034624 [mEh]     -16.26526283 [kcal/mol]     -68.05385967 [kJ/mol]
  Total SAPT2+                    -26.04617912 [mEh]     -16.34422415 [kcal/mol]     -68.38423385 [kJ/mol]

  Special recipe for scaled SAPT0 (see Manual):
    Electrostatics sSAPT0         -25.03716436 [mEh]     -15.71105783 [kcal/mol]     -65.73506596 [kJ/mol]
    Exchange sSAPT0                19.06708502 [mEh]      11.96477649 [kcal/mol]      50.06062481 [kJ/mol]
    Induction sSAPT0              -20.91050273 [mEh]     -13.12153857 [kcal/mol]     -54.90051737 [kJ/mol]
    Dispersion sSAPT0              -0.89354249 [mEh]      -0.56070638 [kcal/mol]      -2.34599550 [kJ/mol]
  Total sSAPT0                    -27.77412457 [mEh]     -17.42852629 [kcal/mol]     -72.92095401 [kJ/mol]
  --------------------------------------------------------------------------------------------------------

*** Psi4 exiting successfully. Buy a developer a beer!
