                               Psi4 1.9 release

  ==> Input File <==

--------------------------------------------------------------------------
MEMORY 60 GB

molecule dimer {
0 1
O      0.000000     0.000000     0.000000
H      0.105625     0.953626    -0.060983
H     -0.825864    -0.121965     0.476813
--
1 1
Na     2.158940     0.000000     0.000000

units ang
no_reorient
no_com
symmetry c1
}

set {
basis        aug-cc-pVTZ
scf_type     df
}

energy("sapt2+")
--------------------------------------------------------------------------

  //              Dimer HF             //
    Molecular point group: c1
  Charge       = 1
  Multiplicity = 1
  Basis Set: AUG-CC-PVTZ
    Blend: AUG-CC-PVTZ
  Basis Set: (AUG-CC-PVTZ AUX)
    Blend: AUG-CC-PVTZ-JKFIT + DEF2-UNIVERSAL-JKFIT
  @DF-RHF Final Energy:  -237.76073290930339
    Total Energy =                       -237.7607329093033854
 Dipole X            :        -40.2630028           43.5168041            3.2538013
 Dipole Y            :         -1.0088125            1.5716115            0.5627990
 Dipole Z            :         -0.4848841            0.7858048            0.3009207
 Magnitude           :                                                    3.3157984
  //            Monomer A HF           //
    Molecular point group: c1
  Multiplicity = 1
  Basis Set: AUG-CC-PVTZ
    Blend: AUG-CC-PVTZ
  Basis Set: (AUG-CC-PVTZ AUX)
    Blend: AUG-CC-PVTZ-JKFIT + DEF2-UNIVERSAL-JKFIT
  @DF-RHF Final Energy:   -76.06037430712387
    Total Energy =                        -76.0603743071238654
  //            Monomer B HF           //
    Molecular point group: c1

    Geometry (in Angstrom), charge = 1, multiplicity = 1:

       Center              X                  Y                   Z               Mass
    ------------   -----------------  -----------------  -----------------  -----------------
      Gh(O)           0.000000000000     0.000000000000     0.000000000000    15.994914619570
      Gh(H)           0.105625000000     0.953626000000    -0.060983000000     1.007825032230
      Gh(H)          -0.825864000000    -0.121965000000     0.476813000000     1.007825032230
         NA           2.158940000000     0.000000000000     0.000000000000    22.989769282000

  Charge       = 1
  Multiplicity = 1
  Basis Set: AUG-CC-PVTZ
    Blend: AUG-CC-PVTZ
  Basis Set: (AUG-CC-PVTZ AUX)
    Blend: AUG-CC-PVTZ-JKFIT + DEF2-UNIVERSAL-JKFIT

    Orbital Energies [Eh]
    ---------------------

    Doubly Occupied:

       1A    -40.762723     2A     -3.074865     3A     -1.798153
       4A     -1.798055     5A     -1.798008

  @DF-RHF Final Energy:  -161.67604487995715

   => Energetics <=

    Nuclear Repulsion Energy =              0.0000000000000000
    One-Electron Energy =                -224.8884830678611308
    Two-Electron Energy =                  63.2124381879039845
    Total Energy =                       -161.6760448799571463
 Dipole X            :        -40.7986570           44.8778585            4.0792015
 Dipole Y            :          0.0000677            0.0000000            0.0000677
 Dipole Z            :          0.0000256            0.0000000            0.0000256
 Magnitude           :                                                    4.0792015

    SAPT Results
  --------------------------------------------------------------------------------------------------------
    Electrostatics                -29.66636510 [mEh]     -18.61592515 [kcal/mol]     -77.88903084 [kJ/mol]
      Elst10,r                    -31.07273211 [mEh]     -19.49843378 [kcal/mol]     -81.58144693 [kJ/mol]
      Elst12,r                      1.40636701 [mEh]       0.88250862 [kcal/mol]       3.69241609 [kJ/mol]

    Exchange                       18.07271156 [mEh]      11.34079772 [kcal/mol]      47.44989765 [kJ/mol]
      Exch10                       16.51635686 [mEh]      10.36417040 [kcal/mol]      43.36368895 [kJ/mol]
      Exch10(S^2)                  16.44130582 [mEh]      10.31707516 [kcal/mol]      43.16664248 [kJ/mol]
      Exch11(S^2)                  -0.14990806 [mEh]      -0.09406873 [kcal/mol]      -0.39358355 [kJ/mol]
      Exch12(S^2)                   1.70626276 [mEh]       1.07069604 [kcal/mol]       4.47979225 [kJ/mol]

    Induction                     -11.12524096 [mEh]      -6.98119410 [kcal/mol]     -29.20931611 [kJ/mol]
      Ind20,r                     -27.47010060 [mEh]     -17.23774837 [kcal/mol]     -72.12273920 [kJ/mol]
      Ind22                        -3.35892364 [mEh]      -2.10775640 [kcal/mol]      -8.81885280 [kJ/mol]
      Exch-Ind20,r                 16.28312835 [mEh]      10.21781730 [kcal/mol]      42.75134758 [kJ/mol]
      Exch-Ind22                    1.99102965 [mEh]       1.24938997 [kcal/mol]       5.22744762 [kJ/mol]
      delta HF,r (2)                1.42962529 [mEh]       0.89710341 [kcal/mol]       3.75348069 [kJ/mol]

    Dispersion                     -0.90078068 [mEh]      -0.56524841 [kcal/mol]      -2.36499936 [kJ/mol]
      Disp20                       -0.92086836 [mEh]      -0.57785362 [kcal/mol]      -2.41773955 [kJ/mol]
      Disp21                       -0.02819825 [mEh]      -0.01769467 [kcal/mol]      -0.07403449 [kJ/mol]
      Disp22 (SDQ)                 -0.04886193 [mEh]      -0.03066132 [kcal/mol]      -0.12828697 [kJ/mol]
      Disp22 (T)                   -0.06675257 [mEh]      -0.04188787 [kcal/mol]      -0.17525885 [kJ/mol]
      Est. Disp22 (T)              -0.08049931 [mEh]      -0.05051408 [kcal/mol]      -0.21135090 [kJ/mol]
      Exch-Disp20                   0.17764716 [mEh]       0.11147528 [kcal/mol]       0.46641256 [kJ/mol]

  Total HF                        -24.31372222 [mEh]     -15.25709104 [kcal/mol]     -63.83566890 [kJ/mol]
  Total SAPT0                     -25.05694342 [mEh]     -15.72346938 [kcal/mol]     -65.78699590 [kJ/mol]
  Total SAPT2                     -23.46211570 [mEh]     -14.72269988 [kcal/mol]     -61.59977629 [kJ/mol]
  Total SAPT2+                    -23.61967518 [mEh]     -14.82156995 [kcal/mol]     -62.01344865 [kJ/mol]

  Special recipe for scaled SAPT0 (see Manual):
    Electrostatics sSAPT0         -31.07273211 [mEh]     -19.49843378 [kcal/mol]     -81.58144693 [kJ/mol]
    Exchange sSAPT0                16.51635686 [mEh]      10.36417040 [kcal/mol]      43.36368895 [kJ/mol]
    Induction sSAPT0               -9.53334055 [mEh]      -5.98226151 [kcal/mol]     -25.02978217 [kJ/mol]
    Dispersion sSAPT0              -0.74077732 [mEh]      -0.46484478 [kcal/mol]      -1.94491057 [kJ/mol]
  Total sSAPT0                    -24.83049313 [mEh]     -15.58136967 [kcal/mol]     -65.19245072 [kJ/mol]
  --------------------------------------------------------------------------------------------------------

*** Psi4 exiting successfully. Buy a developer a beer!
