                               Psi4 1.9 release

  ==> Input File <==

--------------------------------------------------------------------------
MEMORY 60 GB

molecule dimer {
0 1
O      0.000000     0.000000     0.000000
H     -0.770386     0.364626     0.444783
H     -0.111723    -0.952699     0.064504
--
1 1
Na     2.158940     0.000000     0.000000

units ang
no_reorient
no_com
symmetry c1
}

set {
basis        aug-cc-pVTZ
scf_type     df
}

energy("sapt2+")
--------------------------------------------------------------------------

  //              Dimer HF             //
    Molecular point group: c1
  Charge       = 1
  Multiplicity = 1
  Basis Set: AUG-CC-PVTZ
    Blend: AUG-CC-PVTZ
  Basis Set: (AUG-CC-PVTZ AUX)
    Blend: AUG-CC-PVTZ-JKFIT + DEF2-UNIVERSAL-JKFIT
  @DF-RHF Final Energy:  -237.76731096762654
    Total Energy =                       -237.7673109676265426
 Dipole X            :        -40.0612232           43.2109141            3.1496909
 Dipole Y            :          0.7111824           -1.1112969           -0.4001145
 Dipole Z            :         -0.5993329            0.9624129            0.3630800
 Magnitude           :                                                    3.1956957
  //            Monomer A HF           //
    Molecular point group: c1
  Multiplicity = 1
  Basis Set: AUG-CC-PVTZ
    Blend: AUG-CC-PVTZ
  Basis Set: (AUG-CC-PVTZ AUX)
    Blend: AUG-CC-PVTZ-JKFIT + DEF2-UNIVERSAL-JKFIT
  @DF-RHF Final Energy:   -76.06037646237685
    Total Energy =                        -76.0603764623768654
  //            Monomer B HF           //
    Molecular point group: c1

    Geometry (in Angstrom), charge = 1, multiplicity = 1:

       Center              X                  Y                   Z               Mass
    ------------   -----------------  -----------------  -----------------  -----------------
      Gh(O)           0.000000000000     0.000000000000     0.000000000000    15.994914619570
      Gh(H)          -0.770386000000     0.364626000000     0.444783000000     1.007825032230
      Gh(H)          -0.111723000000    -0.952699000000     0.064504000000     1.007825032230
         NA           2.158940000000     0.000000000000     0.000000000000    22.989769282000

  Charge       = 1
  Multiplicity = 1
  Basis Set: AUG-CC-PVTZ
    Blend: AUG-CC-PVTZ
  Basis Set: (AUG-CC-PVTZ AUX)
    Blend: AUG-CC-PVTZ-JKFIT + DEF2-UNIVERSAL-JKFIT

    Orbital Energies [Eh]
    ---------------------

    Doubly Occupied:

       1A    -40.762632     2A     -3.074833     3A     -1.798140
       4A     -1.798017     5A     -1.797976

  @DF-RHF Final Energy:  -161.67604455142035

   => Energetics <=

    Nuclear Repulsion Energy =              0.0000000000000000
    One-Electron Energy =                -224.8888917614582112
    Two-Electron Energy =                  63.2128472100378360
    Total Energy =                       -161.6760445514203752
 Dipole X            :        -40.7986507           44.8778585            4.0792079
 Dipole Y            :         -0.0000439            0.0000000           -0.0000439
 Dipole Z            :          0.0000439            0.0000000            0.0000439
 Magnitude           :                                                    4.0792079

    SAPT Results
  --------------------------------------------------------------------------------------------------------
    Electrostatics                -36.80218197 [mEh]     -23.09371784 [kcal/mol]     -96.62411546 [kJ/mol]
      Elst10,r                    -38.46868669 [mEh]     -24.13946534 [kcal/mol]    -100.99952300 [kJ/mol]
      Elst12,r                      1.66650472 [mEh]       1.04574750 [kcal/mol]       4.37540755 [kJ/mol]

    Exchange                       18.77893367 [mEh]      11.78395878 [kcal/mol]      49.30408355 [kJ/mol]
      Exch10                       17.21938754 [mEh]      10.80532882 [kcal/mol]      45.20949577 [kJ/mol]
      Exch10(S^2)                  17.13584581 [mEh]      10.75290559 [kcal/mol]      44.99015698 [kJ/mol]
      Exch11(S^2)                  -0.14084412 [mEh]      -0.08838102 [kcal/mol]      -0.36978619 [kJ/mol]
      Exch12(S^2)                   1.70039024 [mEh]       1.06701099 [kcal/mol]       4.46437397 [kJ/mol]

    Induction                     -10.97452644 [mEh]      -6.88661931 [kcal/mol]     -28.81361521 [kJ/mol]
      Ind20,r                     -28.57891091 [mEh]     -17.93353735 [kcal/mol]     -75.03392025 [kJ/mol]
      Ind22                        -3.39640656 [mEh]      -2.13127729 [kcal/mol]      -8.91726419 [kJ/mol]
      Exch-Ind20,r                 17.35510668 [mEh]      10.89049386 [kcal/mol]      45.56582630 [kJ/mol]
      Exch-Ind22                    2.06253479 [mEh]       1.29426012 [kcal/mol]       5.41518435 [kJ/mol]
      delta HF,r (2)                1.58314955 [mEh]       0.99344134 [kcal/mol]       4.15655857 [kJ/mol]

    Dispersion                     -0.87521312 [mEh]      -0.54920453 [kcal/mol]      -2.29787174 [kJ/mol]
      Disp20                       -0.90139998 [mEh]      -0.56563703 [kcal/mol]      -2.36662532 [kJ/mol]
      Disp21                       -0.02769015 [mEh]      -0.01737583 [kcal/mol]      -0.07270047 [kJ/mol]
      Disp22 (SDQ)                 -0.04900315 [mEh]      -0.03074994 [kcal/mol]      -0.12865775 [kJ/mol]
      Disp22 (T)                   -0.06519458 [mEh]      -0.04091022 [kcal/mol]      -0.17116835 [kJ/mol]
      Est. Disp22 (T)              -0.07896036 [mEh]      -0.04954838 [kcal/mol]      -0.20731040 [kJ/mol]
      Exch-Disp20                   0.18184051 [mEh]       0.11410665 [kcal/mol]       0.47742221 [kJ/mol]

  Total HF                        -30.88995383 [mEh]     -19.38373867 [kcal/mol]     -81.10156261 [kJ/mol]
  Total SAPT0                     -31.60951330 [mEh]     -19.83526905 [kcal/mol]     -82.99076572 [kJ/mol]
  Total SAPT2                     -29.71733421 [mEh]     -18.64790875 [kcal/mol]     -78.02285023 [kJ/mol]
  Total SAPT2+                    -29.87298787 [mEh]     -18.74558290 [kcal/mol]     -78.43151885 [kJ/mol]

  Special recipe for scaled SAPT0 (see Manual):
    Electrostatics sSAPT0         -38.46868669 [mEh]     -24.13946534 [kcal/mol]    -100.99952300 [kJ/mol]
    Exchange sSAPT0                17.21938754 [mEh]      10.80532882 [kcal/mol]      45.20949577 [kJ/mol]
    Induction sSAPT0               -9.38558311 [mEh]      -5.88954232 [kcal/mol]     -24.64184506 [kJ/mol]
    Dispersion sSAPT0              -0.71688692 [mEh]      -0.44985333 [kcal/mol]      -1.88218635 [kJ/mol]
  Total sSAPT0                    -31.35176918 [mEh]     -19.67353218 [kcal/mol]     -82.31405864 [kJ/mol]
  --------------------------------------------------------------------------------------------------------

*** Psi4 exiting successfully. Buy a developer a beer!
