                               Psi4 1.9 release

  ==> Input File <==

--------------------------------------------------------------------------
MEMORY 60 GB

molecule dimer {
0 1
O      0.000000     0.000000     0.000000
H     -0.662407     0.582438     0.382441
H     -0.321458    -0.886847     0.185594
--
1 1
Na     2.158940     0.000000     0.000000

units ang
no_reorient
no_com
symmetry c1
}

set {
basis        aug-cc-pVTZ
scf_type     df
}

energy("sapt2+")
--------------------------------------------------------------------------

  //              Dimer HF             //
    Molecular point group: c1
  Charge       = 1
  Multiplicity = 1
  Basis Set: AUG-CC-PVTZ
    Blend: AUG-CC-PVTZ
  Basis Set: (AUG-CC-PVTZ AUX)
    Blend: AUG-CC-PVTZ-JKFIT + DEF2-UNIVERSAL-JKFIT
  @DF-RHF Final Energy:  -237.77118306182822
    Total Energy =                       -237.7711830618282249
 Dipole X            :        -39.9352745           43.0186231            3.0833486
 Dipole Y            :          0.3674763           -0.5752496           -0.2077734
 Dipole Z            :         -0.6706837            1.0734306            0.4027469
 Magnitude           :                                                    3.1164745
  //            Monomer A HF           //
    Molecular point group: c1
  Multiplicity = 1
  Basis Set: AUG-CC-PVTZ
    Blend: AUG-CC-PVTZ
  Basis Set: (AUG-CC-PVTZ AUX)
    Blend: AUG-CC-PVTZ-JKFIT + DEF2-UNIVERSAL-JKFIT
  @DF-RHF Final Energy:   -76.06037794365298
    Total Energy =                        -76.0603779436529948
  //            Monomer B HF           //
    Molecular point group: c1

    Geometry (in Angstrom), charge = 1, multiplicity = 1:

       Center              X                  Y                   Z               Mass
    ------------   -----------------  -----------------  -----------------  -----------------
      Gh(O)           0.000000000000     0.000000000000     0.000000000000    15.994914619570
      Gh(H)          -0.662407000000     0.582438000000     0.382441000000     1.007825032230
      Gh(H)          -0.321458000000    -0.886847000000     0.185594000000     1.007825032230
         NA           2.158940000000     0.000000000000     0.000000000000    22.989769282000

  Charge       = 1
  Multiplicity = 1
  Basis Set: AUG-CC-PVTZ
    Blend: AUG-CC-PVTZ
  Basis Set: (AUG-CC-PVTZ AUX)
    Blend: AUG-CC-PVTZ-JKFIT + DEF2-UNIVERSAL-JKFIT

    Orbital Energies [Eh]
    ---------------------

    Doubly Occupied:

       1A    -40.762598     2A     -3.074825     3A     -1.798145
       4A     -1.798004     5A     -1.797963

  @DF-RHF Final Energy:  -161.67604421276246

   => Energetics <=

    Nuclear Repulsion Energy =              0.0000000000000000
    One-Electron Energy =                -224.8890174789603407
    Two-Electron Energy =                  63.2129732661978778
    Total Energy =                       -161.6760442127624628
 Dipole X            :        -40.7986232           44.8778585            4.0792353
 Dipole Y            :         -0.0000177            0.0000000           -0.0000177
 Dipole Z            :          0.0000564            0.0000000            0.0000564
 Magnitude           :                                                    4.0792353

    SAPT Results
  --------------------------------------------------------------------------------------------------------
    Electrostatics                -41.23679902 [mEh]     -25.87648205 [kcal/mol]    -108.26720090 [kJ/mol]
      Elst10,r                    -43.08156625 [mEh]     -27.03409097 [kcal/mol]    -113.11063660 [kJ/mol]
      Elst12,r                      1.84476723 [mEh]       1.15760891 [kcal/mol]       4.84343570 [kJ/mol]

    Exchange                       19.48223002 [mEh]      12.22528391 [kcal/mol]      51.15058786 [kJ/mol]
      Exch10                       17.92329789 [mEh]      11.24703922 [kcal/mol]      47.05761212 [kJ/mol]
      Exch10(S^2)                  17.83169485 [mEh]      11.18955745 [kcal/mol]      46.81710837 [kJ/mol]
      Exch11(S^2)                  -0.13642147 [mEh]      -0.08560577 [kcal/mol]      -0.35817452 [kJ/mol]
      Exch12(S^2)                   1.69535360 [mEh]       1.06385045 [kcal/mol]       4.45115027 [kJ/mol]

    Induction                     -10.91278747 [mEh]      -6.84787752 [kcal/mol]     -28.65151956 [kJ/mol]
      Ind20,r                     -29.54937505 [mEh]     -18.54251279 [kcal/mol]     -77.58187350 [kJ/mol]
      Ind22                        -3.42567766 [mEh]      -2.14964519 [kcal/mol]      -8.99411547 [kJ/mol]
      Exch-Ind20,r                 18.24821658 [mEh]      11.45092878 [kcal/mol]      47.91068602 [kJ/mol]
      Exch-Ind22                    2.11552724 [mEh]       1.32751339 [kcal/mol]       5.55431601 [kJ/mol]
      delta HF,r (2)                1.69852142 [mEh]       1.06583828 [kcal/mol]       4.45946737 [kJ/mol]

    Dispersion                     -0.86284265 [mEh]      -0.54144194 [kcal/mol]      -2.26539308 [kJ/mol]
      Disp20                       -0.89280338 [mEh]      -0.56024258 [kcal/mol]      -2.34405494 [kJ/mol]
      Disp21                       -0.02825166 [mEh]      -0.01772818 [kcal/mol]      -0.07417472 [kJ/mol]
      Disp22 (SDQ)                 -0.04910630 [mEh]      -0.03081467 [kcal/mol]      -0.12892856 [kJ/mol]
      Disp22 (T)                   -0.06112088 [mEh]      -0.03835393 [kcal/mol]      -0.16047284 [kJ/mol]
      Est. Disp22 (T)              -0.07904903 [mEh]      -0.04960402 [kcal/mol]      -0.20754320 [kJ/mol]
      Exch-Disp20                   0.18636771 [mEh]       0.11694750 [kcal/mol]       0.48930835 [kJ/mol]

  Total HF                        -34.76090541 [mEh]     -21.81279746 [kcal/mol]     -91.26474459 [kJ/mol]
  Total SAPT0                     -35.46734108 [mEh]     -22.25609254 [kcal/mol]     -93.11949118 [kJ/mol]
  Total SAPT2                     -33.37379214 [mEh]     -20.94237074 [kcal/mol]     -87.62287919 [kJ/mol]
  Total SAPT2+                    -33.53019913 [mEh]     -21.04051761 [kcal/mol]     -88.03352568 [kJ/mol]

  Special recipe for scaled SAPT0 (see Manual):
    Electrostatics sSAPT0         -43.08156625 [mEh]     -27.03409097 [kcal/mol]    -113.11063660 [kJ/mol]
    Exchange sSAPT0                17.92329789 [mEh]      11.24703922 [kcal/mol]      47.05761212 [kJ/mol]
    Induction sSAPT0               -9.31996164 [mEh]      -5.84836422 [kcal/mol]     -24.46955591 [kJ/mol]
    Dispersion sSAPT0              -0.70354873 [mEh]      -0.44148349 [kcal/mol]      -1.84716692 [kJ/mol]
  Total sSAPT0                    -35.18177872 [mEh]     -22.07689945 [kcal/mol]     -92.36974731 [kJ/mol]
  --------------------------------------------------------------------------------------------------------

*** Psi4 exiting successfully. Buy a developer a beer!
