                               Psi4 1.9 release

  ==> Input File <==

--------------------------------------------------------------------------
MEMORY 60 GB

molecule dimer {
0 1
O      0.000000     0.000000     0.000000
H     -0.509286     0.760558     0.294036
H     -0.509286    -0.760558     0.294036
--
1 1
Na     2.158940     0.000000     0.000000

units ang
no_reorient
no_com
symmetry c1
}

set {
basis        aug-cc-pVTZ
scf_type     df
}

energy("sapt2+")
--------------------------------------------------------------------------

  //              Dimer HF             //
    Molecular point group: c1
  Charge       = 1
  Multiplicity = 1
  Basis Set: AUG-CC-PVTZ
    Blend: AUG-CC-PVTZ
  Basis Set: (AUG-CC-PVTZ AUX)
    Blend: AUG-CC-PVTZ-JKFIT + DEF2-UNIVERSAL-JKFIT
  @DF-RHF Final Energy:  -237.77246663923461
    Total Energy =                       -237.7724666392346080
 Dipole X            :        -39.8924690           42.9530364            3.0605674
 Dipole Y            :         -0.0000000            0.0000000           -0.0000000
 Dipole Z            :         -0.6949332            1.1112950            0.4163618
 Magnitude           :                                                    3.0887586
  //            Monomer A HF           //
    Molecular point group: c1
  Multiplicity = 1
  Basis Set: AUG-CC-PVTZ
    Blend: AUG-CC-PVTZ
  Basis Set: (AUG-CC-PVTZ AUX)
    Blend: AUG-CC-PVTZ-JKFIT + DEF2-UNIVERSAL-JKFIT
  @DF-RHF Final Energy:   -76.06037813924449
    Total Energy =                        -76.0603781392444915
  //            Monomer B HF           //
    Molecular point group: c1

    Geometry (in Angstrom), charge = 1, multiplicity = 1:

       Center              X                  Y                   Z               Mass
    ------------   -----------------  -----------------  -----------------  -----------------
      Gh(O)           0.000000000000     0.000000000000     0.000000000000    15.994914619570
      Gh(H)          -0.509286000000     0.760558000000     0.294036000000     1.007825032230
      Gh(H)          -0.509286000000    -0.760558000000     0.294036000000     1.007825032230
         NA           2.158940000000     0.000000000000     0.000000000000    22.989769282000

  Charge       = 1
  Multiplicity = 1
  Basis Set: AUG-CC-PVTZ
    Blend: AUG-CC-PVTZ
  Basis Set: (AUG-CC-PVTZ AUX)
    Blend: AUG-CC-PVTZ-JKFIT + DEF2-UNIVERSAL-JKFIT

    Orbital Energies [Eh]
    ---------------------

    Doubly Occupied:

       1A    -40.762595     2A     -3.074827     3A     -1.798153
       4A     -1.798003     5A     -1.797962

  @DF-RHF Final Energy:  -161.67604364228700

   => Energetics <=

    Nuclear Repulsion Energy =              0.0000000000000000
    One-Electron Energy =                -224.8890075404178504
    Two-Electron Energy =                  63.2129638981308517
    Total Energy =                       -161.6760436422869986
 Dipole X            :        -40.7986115           44.8778585            4.0792470
 Dipole Y            :          0.0000000            0.0000000            0.0000000
 Dipole Z            :          0.0000589            0.0000000            0.0000589
 Magnitude           :                                                    4.0792470

    SAPT Results
  --------------------------------------------------------------------------------------------------------
    Electrostatics                -42.74328482 [mEh]     -26.82181617 [kcal/mol]    -112.22247884 [kJ/mol]
      Elst10,r                    -44.65271672 [mEh]     -28.02000277 [kcal/mol]    -117.23569159 [kJ/mol]
      Elst12,r                      1.90943189 [mEh]       1.19818660 [kcal/mol]       5.01321274 [kJ/mol]

    Exchange                       19.75846938 [mEh]      12.39862672 [kcal/mol]      51.87585420 [kJ/mol]
      Exch10                       18.20139542 [mEh]      11.42154806 [kcal/mol]      47.78775709 [kJ/mol]
      Exch10(S^2)                  18.10658785 [mEh]      11.36205541 [kcal/mol]      47.53883985 [kJ/mol]
      Exch11(S^2)                  -0.13502758 [mEh]      -0.08473108 [kcal/mol]      -0.35451485 [kJ/mol]
      Exch12(S^2)                   1.69210153 [mEh]       1.06180974 [kcal/mol]       4.44261196 [kJ/mol]

    Induction                     -10.89510113 [mEh]      -6.83677918 [kcal/mol]     -28.60508407 [kJ/mol]
      Ind20,r                     -29.91386058 [mEh]     -18.77123091 [kcal/mol]     -78.53883012 [kJ/mol]
      Ind22                        -3.43519581 [mEh]      -2.15561792 [kcal/mol]      -9.01910536 [kJ/mol]
      Exch-Ind20,r                 18.57976853 [mEh]      11.65898077 [kcal/mol]      48.78117555 [kJ/mol]
      Exch-Ind22                    2.13363109 [mEh]       1.33887372 [kcal/mol]       5.60184766 [kJ/mol]
      delta HF,r (2)                1.74055564 [mEh]       1.09221515 [kcal/mol]       4.56982820 [kJ/mol]

    Dispersion                     -0.85796416 [mEh]      -0.53838064 [kcal/mol]      -2.25258460 [kJ/mol]
      Disp20                       -0.88954289 [mEh]      -0.55819659 [kcal/mol]      -2.33549454 [kJ/mol]
      Disp21                       -0.02856254 [mEh]      -0.01792326 [kcal/mol]      -0.07499093 [kJ/mol]
      Disp22 (SDQ)                 -0.04909583 [mEh]      -0.03080810 [kcal/mol]      -0.12890110 [kJ/mol]
      Disp22 (T)                   -0.06076159 [mEh]      -0.03812848 [kcal/mol]      -0.15952954 [kJ/mol]
      Est. Disp22 (T)              -0.07878616 [mEh]      -0.04943906 [kcal/mol]      -0.20685305 [kJ/mol]
      Exch-Disp20                   0.18802326 [mEh]       0.11798638 [kcal/mol]       0.49365501 [kJ/mol]

  Total HF                        -36.04485770 [mEh]     -22.61848969 [kcal/mol]     -94.63576086 [kJ/mol]
  Total SAPT0                     -36.74637733 [mEh]     -23.05869990 [kcal/mol]     -96.47760039 [kJ/mol]
  Total SAPT2                     -34.58143620 [mEh]     -21.70017883 [kcal/mol]     -90.79354824 [kJ/mol]
  Total SAPT2+                    -34.73788074 [mEh]     -21.79834926 [kcal/mol]     -91.20429331 [kJ/mol]

  Special recipe for scaled SAPT0 (see Manual):
    Electrostatics sSAPT0         -44.65271672 [mEh]     -28.02000277 [kcal/mol]    -117.23569159 [kJ/mol]
    Exchange sSAPT0                18.20139542 [mEh]      11.42154806 [kcal/mol]      47.78775709 [kJ/mol]
    Induction sSAPT0               -9.30015001 [mEh]      -5.83593224 [kcal/mol]     -24.41754048 [kJ/mol]
    Dispersion sSAPT0              -0.69855062 [mEh]      -0.43834713 [kcal/mol]      -1.83404440 [kJ/mol]
  Total sSAPT0                    -36.45002192 [mEh]     -22.87273408 [kcal/mol]     -95.69951937 [kJ/mol]
  --------------------------------------------------------------------------------------------------------

*** Psi4 exiting successfully. Buy a developer a beer!
