                               Psi4 1.9 release

  ==> Input File <==

--------------------------------------------------------------------------
MEMORY 60 GB

molecule dimer {
0 1
O      0.000000     0.000000     0.000000
H     -0.771623     0.359385     0.445497
H     -0.116273    -0.951316     0.067130
--
1 1
K      2.466222     0.000000     0.000000

units ang
no_reorient
no_com
symmetry c1
}

set {
basis        aug-cc-pVTZ
scf_type     df
}

energy("sapt2+")
--------------------------------------------------------------------------

  //              Dimer HF             //
    Molecular point group: c1
  Charge       = 1
  Multiplicity = 1
  Basis Set: AUG-CC-PVTZ
    Blend: AUG-CC-PVTZ
  Basis Set: (AUG-CC-PVTZ AUX)
    Blend: AUG-CC-PVTZ-JKFIT + DEF2-UNIVERSAL-JKFIT
  @DF-RHF Final Energy:  -675.09686404485922
    Total Energy =                       -675.0968640448592168
 Dipole X            :        -83.1704256           86.8713185            3.7008928
 Dipole Y            :          0.7392555           -1.1185875           -0.3793320
 Dipole Z            :         -0.6073751            0.9687246            0.3613495
 Magnitude           :                                                    3.7377900
  //            Monomer A HF           //
    Molecular point group: c1
  Multiplicity = 1
  Basis Set: AUG-CC-PVTZ
    Blend: AUG-CC-PVTZ
  Basis Set: (AUG-CC-PVTZ AUX)
    Blend: AUG-CC-PVTZ-JKFIT + DEF2-UNIVERSAL-JKFIT
  @DF-RHF Final Energy:   -76.06033919202918
    Total Energy =                        -76.0603391920291898
  //            Monomer B HF           //
    Molecular point group: c1

    Geometry (in Angstrom), charge = 1, multiplicity = 1:

       Center              X                  Y                   Z               Mass
    ------------   -----------------  -----------------  -----------------  -----------------
      Gh(O)           0.000000000000     0.000000000000     0.000000000000    15.994914619570
      Gh(H)          -0.771623000000     0.359385000000     0.445497000000     1.007825032230
      Gh(H)          -0.116273000000    -0.951316000000     0.067130000000     1.007825032230
         K            2.466222000000     0.000000000000     0.000000000000    38.963706486400

  Charge       = 1
  Multiplicity = 1
  Basis Set: AUG-CC-PVTZ
    Blend: AUG-CC-PVTZ
  Basis Set: (AUG-CC-PVTZ AUX)
    Blend: AUG-CC-PVTZ-JKFIT + DEF2-UNIVERSAL-JKFIT

    Orbital Energies [Eh]
    ---------------------

    Doubly Occupied:

       1A   -133.753706     2A    -14.709157     3A    -11.739231
       4A    -11.739225     5A    -11.739225     6A     -1.964319
       7A     -1.170979     8A     -1.170910     9A     -1.170906

  @DF-RHF Final Energy:  -599.01750888868230

   => Energetics <=

    Nuclear Repulsion Energy =              0.0000000000000000
    One-Electron Energy =                -819.7197035365181819
    Two-Electron Energy =                 220.7021946478358529
    Total Energy =                       -599.0175088886823005
 Dipole X            :        -83.8891179           88.5491987            4.6600808
 Dipole Y            :         -0.0000351            0.0000000           -0.0000351
 Dipole Z            :          0.0000449            0.0000000            0.0000449
 Magnitude           :                                                    4.6600808

    SAPT Results
  --------------------------------------------------------------------------------------------------------
    Electrostatics                -31.89015287 [mEh]     -20.01137305 [kcal/mol]     -83.72758483 [kJ/mol]
      Elst10,r                    -32.53788926 [mEh]     -20.41783377 [kcal/mol]     -85.42821649 [kJ/mol]
      Elst12,r                      0.64773639 [mEh]       0.40646072 [kcal/mol]       1.70063167 [kJ/mol]

    Exchange                       23.76946786 [mEh]      14.91556627 [kcal/mol]      62.40672927 [kJ/mol]
      Exch10                       21.76682379 [mEh]      13.65888814 [kcal/mol]      57.14878799 [kJ/mol]
      Exch10(S^2)                  21.55085354 [mEh]      13.52336477 [kcal/mol]      56.58175818 [kJ/mol]
      Exch11(S^2)                   0.07068353 [mEh]       0.04435459 [kcal/mol]       0.18557959 [kJ/mol]
      Exch12(S^2)                   1.93196054 [mEh]       1.21232354 [kcal/mol]       5.07236169 [kJ/mol]

    Induction                      -9.43873593 [mEh]      -5.92289622 [kcal/mol]     -24.78139777 [kJ/mol]
      Ind20,r                     -25.98793463 [mEh]     -16.30767518 [kcal/mol]     -68.23131296 [kJ/mol]
      Ind22                        -4.05354921 [mEh]      -2.54364053 [kcal/mol]     -10.64259198 [kJ/mol]
      Exch-Ind20,r                 18.33405824 [mEh]      11.50479524 [kcal/mol]      48.13606328 [kJ/mol]
      Exch-Ind22                    2.85971195 [mEh]       1.79449634 [kcal/mol]       7.50817269 [kJ/mol]
      delta HF,r (2)               -0.59102229 [mEh]      -0.37087209 [kcal/mol]      -1.55172881 [kJ/mol]

    Dispersion                     -3.57299432 [mEh]      -2.24208779 [kcal/mol]      -9.38089530 [kJ/mol]
      Disp20                       -4.32256104 [mEh]      -2.71244801 [kcal/mol]     -11.34888246 [kJ/mol]
      Disp21                        0.50607884 [mEh]       0.31756927 [kcal/mol]       1.32870982 [kJ/mol]
      Disp22 (SDQ)                 -0.02913576 [mEh]      -0.01828297 [kcal/mol]      -0.07649593 [kJ/mol]
      Disp22 (T)                   -0.39015135 [mEh]      -0.24482367 [kcal/mol]      -1.02434222 [kJ/mol]
      Est. Disp22 (T)              -0.44089152 [mEh]      -0.27666360 [kcal/mol]      -1.15756052 [kJ/mol]
      Exch-Disp20                   0.71351516 [mEh]       0.44773752 [kcal/mol]       1.87333379 [kJ/mol]

  Total HF                        -19.01596415 [mEh]     -11.93269766 [kcal/mol]     -49.92640699 [kJ/mol]
  Total SAPT0                     -22.62501003 [mEh]     -14.19740814 [kcal/mol]     -59.40195566 [kJ/mol]
  Total SAPT2                     -21.16846683 [mEh]     -13.28341348 [kcal/mol]     -55.57780200 [kJ/mol]
  Total SAPT2+                    -21.13241526 [mEh]     -13.26079078 [kcal/mol]     -55.48314863 [kJ/mol]

  Special recipe for scaled SAPT0 (see Manual):
    Electrostatics sSAPT0         -32.53788926 [mEh]     -20.41783377 [kcal/mol]     -85.42821649 [kJ/mol]
    Exchange sSAPT0                21.76682379 [mEh]      13.65888814 [kcal/mol]      57.14878799 [kJ/mol]
    Induction sSAPT0               -7.68815628 [mEh]      -4.82439090 [kcal/mol]     -20.18525154 [kJ/mol]
    Dispersion sSAPT0              -3.58737888 [mEh]      -2.25111423 [kcal/mol]      -9.41866195 [kJ/mol]
  Total sSAPT0                    -22.04660064 [mEh]     -13.83445076 [kcal/mol]     -57.88334199 [kJ/mol]
  --------------------------------------------------------------------------------------------------------

*** Psi4 exiting successfully. Buy a developer a beer!
