                               Psi4 1.9 release

  ==> Input File <==

--------------------------------------------------------------------------
MEMORY 60 GB

molecule dimer {
0 1
O      0.000000     0.000000     0.000000
H     -0.825885     0.116533     0.476825
H      0.100920    -0.953649    -0.058266
--
1 1
K      2.466222     0.000000     0.000000

units ang
no_reorient
no_com
symmetry c1
}

set {
basis        aug-cc-pVTZ
scf_type     df
}

energy("sapt2+")
--------------------------------------------------------------------------

  //              Dimer HF             //
    Molecular point group: c1
  Charge       = 1
  Multiplicity = 1
  Basis Set: AUG-CC-PVTZ
    Blend: AUG-CC-PVTZ
  Basis Set: (AUG-CC-PVTZ AUX)
    Blend: AUG-CC-PVTZ-JKFIT + DEF2-UNIVERSAL-JKFIT
  @DF-RHF Final Energy:  -675.09165624680134
    Total Energy =                       -675.0916562468012216
 Dipole X            :        -83.3635813           87.1792134            3.8156321
 Dipole Y            :          1.0477644           -1.5819200           -0.5341556
 Dipole Z            :         -0.4874933            0.7909619            0.3034686
 Magnitude           :                                                    3.8647722
  //            Monomer A HF           //
    Molecular point group: c1
  Multiplicity = 1
  Basis Set: AUG-CC-PVTZ
    Blend: AUG-CC-PVTZ
  Basis Set: (AUG-CC-PVTZ AUX)
    Blend: AUG-CC-PVTZ-JKFIT + DEF2-UNIVERSAL-JKFIT
  @DF-RHF Final Energy:   -76.06033762991592
    Total Energy =                        -76.0603376299159208
  //            Monomer B HF           //
    Molecular point group: c1

    Geometry (in Angstrom), charge = 1, multiplicity = 1:

       Center              X                  Y                   Z               Mass
    ------------   -----------------  -----------------  -----------------  -----------------
      Gh(O)           0.000000000000     0.000000000000     0.000000000000    15.994914619570
      Gh(H)          -0.825885000000     0.116533000000     0.476825000000     1.007825032230
      Gh(H)           0.100920000000    -0.953649000000    -0.058266000000     1.007825032230
         K            2.466222000000     0.000000000000     0.000000000000    38.963706486400

  Charge       = 1
  Multiplicity = 1
  Basis Set: AUG-CC-PVTZ
    Blend: AUG-CC-PVTZ
  Basis Set: (AUG-CC-PVTZ AUX)
    Blend: AUG-CC-PVTZ-JKFIT + DEF2-UNIVERSAL-JKFIT

    Orbital Energies [Eh]
    ---------------------

    Doubly Occupied:

       1A   -133.753684     2A    -14.709140     3A    -11.739214
       4A    -11.739207     5A    -11.739207     6A     -1.964311
       7A     -1.170973     8A     -1.170905     9A     -1.170899

  @DF-RHF Final Energy:  -599.01750903128357

   => Energetics <=

    Nuclear Repulsion Energy =              0.0000000000000000
    One-Electron Energy =                -819.7199385216724750
    Two-Electron Energy =                 220.7024294903888801
    Total Energy =                       -599.0175090312835664
 Dipole X            :        -83.8891222           88.5491987            4.6600765
 Dipole Y            :         -0.0000530            0.0000000           -0.0000530
 Dipole Z            :          0.0000173            0.0000000            0.0000173
 Magnitude           :                                                    4.6600765

    SAPT Results
  --------------------------------------------------------------------------------------------------------
    Electrostatics                -26.21013738 [mEh]     -16.44710952 [kcal/mol]     -68.81470622 [kJ/mol]
      Elst10,r                    -26.70451871 [mEh]     -16.75733848 [kcal/mol]     -70.11270422 [kJ/mol]
      Elst12,r                      0.49438133 [mEh]       0.31022897 [kcal/mol]       1.29799800 [kJ/mol]

    Exchange                       23.15170387 [mEh]      14.52791351 [kcal/mol]      60.78479014 [kJ/mol]
      Exch10                       21.17256443 [mEh]      13.28598477 [kcal/mol]      55.58856026 [kJ/mol]
      Exch10(S^2)                  20.97427398 [mEh]      13.16155563 [kcal/mol]      55.06794876 [kJ/mol]
      Exch11(S^2)                   0.05288113 [mEh]       0.03318341 [kcal/mol]       0.13883940 [kJ/mol]
      Exch12(S^2)                   1.92625831 [mEh]       1.20874534 [kcal/mol]       5.05739048 [kJ/mol]

    Induction                      -9.49237449 [mEh]      -5.95655492 [kcal/mol]     -24.92222580 [kJ/mol]
      Ind20,r                     -24.79712209 [mEh]     -15.56042904 [kcal/mol]     -65.10483509 [kJ/mol]
      Ind22                        -3.97464219 [mEh]      -2.49412563 [kcal/mol]     -10.43542164 [kJ/mol]
      Exch-Ind20,r                 17.21854440 [mEh]      10.80479973 [kcal/mol]      45.20728208 [kJ/mol]
      Exch-Ind22                    2.75989902 [mEh]       1.73186278 [kcal/mol]       7.24611389 [kJ/mol]
      delta HF,r (2)               -0.69905363 [mEh]      -0.43866277 [kcal/mol]      -1.83536504 [kJ/mol]

    Dispersion                     -3.66953656 [mEh]      -2.30266896 [kcal/mol]      -9.63436692 [kJ/mol]
      Disp20                       -4.40599887 [mEh]      -2.76480603 [kcal/mol]     -11.56794844 [kJ/mol]
      Disp21                        0.51369189 [mEh]       0.32234653 [kcal/mol]       1.34869787 [kJ/mol]
      Disp22 (SDQ)                 -0.02429919 [mEh]      -0.01524797 [kcal/mol]      -0.06379753 [kJ/mol]
      Disp22 (T)                   -0.40004045 [mEh]      -0.25102917 [kcal/mol]      -1.05030605 [kJ/mol]
      Est. Disp22 (T)              -0.45056473 [mEh]      -0.28273364 [kcal/mol]      -1.18295753 [kJ/mol]
      Exch-Disp20                   0.69763434 [mEh]       0.43777216 [kcal/mol]       1.83163871 [kJ/mol]

  Total HF                        -13.80958560 [mEh]      -8.66564579 [kcal/mol]     -36.25706200 [kJ/mol]
  Total SAPT0                     -17.51795013 [mEh]     -10.99267967 [kcal/mol]     -45.99337174 [kJ/mol]
  Total SAPT2                     -16.25917254 [mEh]     -10.20278480 [kcal/mol]     -42.68845161 [kJ/mol]
  Total SAPT2+                    -16.22034457 [mEh]     -10.17841988 [kcal/mol]     -42.58650880 [kJ/mol]

  Special recipe for scaled SAPT0 (see Manual):
    Electrostatics sSAPT0         -26.70451871 [mEh]     -16.75733848 [kcal/mol]     -70.11270422 [kJ/mol]
    Exchange sSAPT0                21.17256443 [mEh]      13.28598477 [kcal/mol]      55.58856026 [kJ/mol]
    Induction sSAPT0               -7.78464838 [mEh]      -4.88494061 [kcal/mol]     -20.43859151 [kJ/mol]
    Dispersion sSAPT0              -3.68839061 [mEh]      -2.31450005 [kcal/mol]      -9.68386821 [kJ/mol]
  Total sSAPT0                    -17.00499327 [mEh]     -10.67079438 [kcal/mol]     -44.64660369 [kJ/mol]
  --------------------------------------------------------------------------------------------------------

*** Psi4 exiting successfully. Buy a developer a beer!
