                               Psi4 1.9 release

  ==> Input File <==

--------------------------------------------------------------------------
MEMORY 60 GB

molecule dimer {
0 1
O      0.000000     0.000000     0.000000
H     -0.325543     0.884151     0.187952
H     -0.664777    -0.577745     0.383809
--
1 1
K      2.466222     0.000000     0.000000

units ang
no_reorient
no_com
symmetry c1
}

set {
basis        aug-cc-pVTZ
scf_type     df
}

energy("sapt2+")
--------------------------------------------------------------------------

  //              Dimer HF             //
    Molecular point group: c1
  Charge       = 1
  Multiplicity = 1
  Basis Set: AUG-CC-PVTZ
    Blend: AUG-CC-PVTZ
  Basis Set: (AUG-CC-PVTZ AUX)
    Blend: AUG-CC-PVTZ-JKFIT + DEF2-UNIVERSAL-JKFIT
  @DF-RHF Final Energy:  -675.09984763737805
    Total Energy =                       -675.0998476373781614
 Dipole X            :        -83.0499603           86.6777652            3.6278048
 Dipole Y            :         -0.3820777            0.5790234            0.1969458
 Dipole Z            :         -0.6821393            1.0804717            0.3983324
 Magnitude           :                                                    3.6549178
  //            Monomer A HF           //
    Molecular point group: c1
  Multiplicity = 1
  Basis Set: AUG-CC-PVTZ
    Blend: AUG-CC-PVTZ
  Basis Set: (AUG-CC-PVTZ AUX)
    Blend: AUG-CC-PVTZ-JKFIT + DEF2-UNIVERSAL-JKFIT
  @DF-RHF Final Energy:   -76.06034060394637
    Total Energy =                        -76.0603406039463721
  //            Monomer B HF           //
    Molecular point group: c1

    Geometry (in Angstrom), charge = 1, multiplicity = 1:

       Center              X                  Y                   Z               Mass
    ------------   -----------------  -----------------  -----------------  -----------------
      Gh(O)           0.000000000000     0.000000000000     0.000000000000    15.994914619570
      Gh(H)          -0.325543000000     0.884151000000     0.187952000000     1.007825032230
      Gh(H)          -0.664777000000    -0.577745000000     0.383809000000     1.007825032230
         K            2.466222000000     0.000000000000     0.000000000000    38.963706486400

  Charge       = 1
  Multiplicity = 1
  Basis Set: AUG-CC-PVTZ
    Blend: AUG-CC-PVTZ
  Basis Set: (AUG-CC-PVTZ AUX)
    Blend: AUG-CC-PVTZ-JKFIT + DEF2-UNIVERSAL-JKFIT

    Orbital Energies [Eh]
    ---------------------

    Doubly Occupied:

       1A   -133.753703     2A    -14.709154     3A    -11.739228
       4A    -11.739223     5A    -11.739222     6A     -1.964319
       7A     -1.170980     8A     -1.170910     9A     -1.170905

  @DF-RHF Final Energy:  -599.01750886021171

   => Energetics <=

    Nuclear Repulsion Energy =              0.0000000000000000
    One-Electron Energy =                -819.7197323108769069
    Two-Electron Energy =                 220.7022234506651444
    Total Energy =                       -599.0175088602118194
 Dipole X            :        -83.8891381           88.5491987            4.6600606
 Dipole Y            :          0.0000265            0.0000000            0.0000265
 Dipole Z            :          0.0000676            0.0000000            0.0000676
 Magnitude           :                                                    4.6600606

    SAPT Results
  --------------------------------------------------------------------------------------------------------
    Electrostatics                -35.45762651 [mEh]     -22.24999655 [kcal/mol]     -93.09398558 [kJ/mol]
      Elst10,r                    -36.20972420 [mEh]     -22.72194498 [kcal/mol]     -95.06861778 [kJ/mol]
      Elst12,r                      0.75209769 [mEh]       0.47194842 [kcal/mol]       1.97463220 [kJ/mol]

    Exchange                       24.50331333 [mEh]      15.37606126 [kcal/mol]      64.33344029 [kJ/mol]
      Exch10                       22.48685639 [mEh]      14.11071542 [kcal/mol]      59.03923331 [kJ/mol]
      Exch10(S^2)                  22.25266815 [mEh]      13.96376008 [kcal/mol]      58.42437218 [kJ/mol]
      Exch11(S^2)                   0.08323976 [mEh]       0.05223374 [kcal/mol]       0.21854597 [kJ/mol]
      Exch12(S^2)                   1.93321718 [mEh]       1.21311210 [kcal/mol]       5.07566101 [kJ/mol]

    Induction                      -9.45700671 [mEh]      -5.93436130 [kcal/mol]     -24.82936769 [kJ/mol]
      Ind20,r                     -27.03579114 [mEh]     -16.96521507 [kcal/mol]     -70.98245987 [kJ/mol]
      Ind22                        -4.11560812 [mEh]      -2.58258308 [kcal/mol]     -10.80552762 [kJ/mol]
      Exch-Ind20,r                 19.27309153 [mEh]      12.09404752 [kcal/mol]      50.60149484 [kJ/mol]
      Exch-Ind22                    2.93390682 [mEh]       1.84105432 [kcal/mol]       7.70297128 [kJ/mol]
      delta HF,r (2)               -0.51260580 [mEh]      -0.32166499 [kcal/mol]      -1.34584633 [kJ/mol]

    Dispersion                     -3.53457120 [mEh]      -2.21797691 [kcal/mol]      -9.28001540 [kJ/mol]
      Disp20                       -4.29553518 [mEh]      -2.69548902 [kcal/mol]     -11.27792605 [kJ/mol]
      Disp21                        0.49847267 [mEh]       0.31279632 [kcal/mol]       1.30873982 [kJ/mol]
      Disp22 (SDQ)                 -0.03090894 [mEh]      -0.01939566 [kcal/mol]      -0.08115142 [kJ/mol]
      Disp22 (T)                   -0.38801668 [mEh]      -0.24348414 [kcal/mol]      -1.01873766 [kJ/mol]
      Est. Disp22 (T)              -0.43861760 [mEh]      -0.27523670 [kcal/mol]      -1.15159034 [kJ/mol]
      Exch-Disp20                   0.73201785 [mEh]       0.45934814 [kcal/mol]       1.92191260 [kJ/mol]

  Total HF                        -21.99817322 [mEh]     -13.80406210 [kcal/mol]     -57.75619583 [kJ/mol]
  Total SAPT0                     -25.56169055 [mEh]     -16.04020298 [kcal/mol]     -67.11220929 [kJ/mol]
  Total SAPT2                     -23.97483722 [mEh]     -15.04443748 [kcal/mol]     -62.94592644 [kJ/mol]
  Total SAPT2+                    -23.94589108 [mEh]     -15.02627351 [kcal/mol]     -62.86992838 [kJ/mol]

  Special recipe for scaled SAPT0 (see Manual):
    Electrostatics sSAPT0         -36.20972420 [mEh]     -22.72194498 [kcal/mol]     -95.06861778 [kJ/mol]
    Exchange sSAPT0                22.48685639 [mEh]      14.11071542 [kcal/mol]      59.03923331 [kJ/mol]
    Induction sSAPT0               -7.66038608 [mEh]      -4.80696484 [kcal/mol]     -20.11234087 [kJ/mol]
    Dispersion sSAPT0              -3.54016187 [mEh]      -2.22148511 [kcal/mol]      -9.29469370 [kJ/mol]
  Total sSAPT0                    -24.92341575 [mEh]     -15.63967950 [kcal/mol]     -65.43641905 [kJ/mol]
  --------------------------------------------------------------------------------------------------------

*** Psi4 exiting successfully. Buy a developer a beer!
