                               Psi4 1.9 release

  ==> Input File <==

--------------------------------------------------------------------------
MEMORY 60 GB

molecule dimer {
0 1
O      0.000000     0.000000     0.000000
H     -0.512627     0.756733     0.295965
H     -0.512627    -0.756733     0.295965
--
1 1
K      2.466222     0.000000     0.000000

units ang
no_reorient
no_com
symmetry c1
}

set {
basis        aug-cc-pVTZ
scf_type     df
}

energy("sapt2+")
--------------------------------------------------------------------------

  //              Dimer HF             //
    Molecular point group: c1
  Charge       = 1
  Multiplicity = 1
  Basis Set: AUG-CC-PVTZ
    Blend: AUG-CC-PVTZ
  Basis Set: (AUG-CC-PVTZ AUX)
    Blend: AUG-CC-PVTZ-JKFIT + DEF2-UNIVERSAL-JKFIT
  @DF-RHF Final Energy:  -675.10082336799860
    Total Energy =                       -675.1008233679986006
 Dipole X            :        -83.0090650           86.6117495            3.6026845
 Dipole Y            :         -0.0000000            0.0000000           -0.0000000
 Dipole Z            :         -0.7075387            1.1185856            0.4110469
 Magnitude           :                                                    3.6260578
  //            Monomer A HF           //
    Molecular point group: c1
  Multiplicity = 1
  Basis Set: AUG-CC-PVTZ
    Blend: AUG-CC-PVTZ
  Basis Set: (AUG-CC-PVTZ AUX)
    Blend: AUG-CC-PVTZ-JKFIT + DEF2-UNIVERSAL-JKFIT
  @DF-RHF Final Energy:   -76.06034117042522
    Total Energy =                        -76.0603411704252323
  //            Monomer B HF           //
    Molecular point group: c1

    Geometry (in Angstrom), charge = 1, multiplicity = 1:

       Center              X                  Y                   Z               Mass
    ------------   -----------------  -----------------  -----------------  -----------------
      Gh(O)           0.000000000000     0.000000000000     0.000000000000    15.994914619570
      Gh(H)          -0.512627000000     0.756733000000     0.295965000000     1.007825032230
      Gh(H)          -0.512627000000    -0.756733000000     0.295965000000     1.007825032230
         K            2.466222000000     0.000000000000     0.000000000000    38.963706486400

  Charge       = 1
  Multiplicity = 1
  Basis Set: AUG-CC-PVTZ
    Blend: AUG-CC-PVTZ
  Basis Set: (AUG-CC-PVTZ AUX)
    Blend: AUG-CC-PVTZ-JKFIT + DEF2-UNIVERSAL-JKFIT

    Orbital Energies [Eh]
    ---------------------

    Doubly Occupied:

       1A   -133.753699     2A    -14.709151     3A    -11.739224
       4A    -11.739220     5A    -11.739219     6A     -1.964317
       7A     -1.170979     8A     -1.170909     9A     -1.170903

  @DF-RHF Final Energy:  -599.01750886715035

   => Energetics <=

    Nuclear Repulsion Energy =              0.0000000000000000
    One-Electron Energy =                -819.7197733080791977
    Two-Electron Energy =                 220.7022644409288148
    Total Energy =                       -599.0175088671503545
 Dipole X            :        -83.8891499           88.5491987            4.6600488
 Dipole Y            :         -0.0000000            0.0000000           -0.0000000
 Dipole Z            :          0.0000770            0.0000000            0.0000770
 Magnitude           :                                                    4.6600488

    SAPT Results
  --------------------------------------------------------------------------------------------------------
    Electrostatics                -36.67417008 [mEh]     -23.01338917 [kcal/mol]     -96.28802029 [kJ/mol]
      Elst10,r                    -37.46369849 [mEh]     -23.50882573 [kcal/mol]     -98.36092683 [kJ/mol]
      Elst12,r                      0.78952841 [mEh]       0.49543656 [kcal/mol]       2.07290655 [kJ/mol]

    Exchange                       24.80326669 [mEh]      15.56428483 [kcal/mol]      65.12096772 [kJ/mol]
      Exch10                       22.78362181 [mEh]      14.29693853 [kcal/mol]      59.81839083 [kJ/mol]
      Exch10(S^2)                  22.54205000 [mEh]      14.14534994 [kcal/mol]      59.18414413 [kJ/mol]
      Exch11(S^2)                   0.08741953 [mEh]       0.05485658 [kcal/mol]       0.22951995 [kJ/mol]
      Exch12(S^2)                   1.93222534 [mEh]       1.21248971 [kcal/mol]       5.07305694 [kJ/mol]

    Induction                      -9.47109613 [mEh]      -5.94320255 [kcal/mol]     -24.86635947 [kJ/mol]
      Ind20,r                     -27.43387348 [mEh]     -17.21501551 [kcal/mol]     -72.02762490 [kJ/mol]
      Ind22                        -4.13786452 [mEh]      -2.59654919 [kcal/mol]     -10.86396180 [kJ/mol]
      Exch-Ind20,r                 19.62482636 [mEh]      12.31476446 [kcal/mol]      51.52497451 [kJ/mol]
      Exch-Ind22                    2.96002213 [mEh]       1.85744193 [kcal/mol]       7.77153704 [kJ/mol]
      delta HF,r (2)               -0.48420662 [mEh]      -0.30384424 [kcal/mol]      -1.27128432 [kJ/mol]

    Dispersion                     -3.52443453 [mEh]      -2.21161606 [kcal/mol]      -9.25340159 [kJ/mol]
      Disp20                       -4.28980331 [mEh]      -2.69189222 [kcal/mol]     -11.26287703 [kJ/mol]
      Disp21                        0.49528502 [mEh]       0.31079604 [kcal/mol]       1.30037064 [kJ/mol]
      Disp22 (SDQ)                 -0.03121137 [mEh]      -0.01958543 [kcal/mol]      -0.08194544 [kJ/mol]
      Disp22 (T)                   -0.38797159 [mEh]      -0.24345585 [kcal/mol]      -1.01861927 [kJ/mol]
      Est. Disp22 (T)              -0.43845955 [mEh]      -0.27513752 [kcal/mol]      -1.15117540 [kJ/mol]
      Exch-Disp20                   0.73975468 [mEh]       0.46420307 [kcal/mol]       1.94222563 [kJ/mol]

  Total HF                        -22.97333042 [mEh]     -14.41598248 [kcal/mol]     -60.31647072 [kJ/mol]
  Total SAPT0                     -26.52337905 [mEh]     -16.64367163 [kcal/mol]     -69.63712211 [kJ/mol]
  Total SAPT2                     -24.89204816 [mEh]     -15.61999604 [kcal/mol]     -65.35406343 [kJ/mol]
  Total SAPT2+                    -24.86643406 [mEh]     -15.60392295 [kcal/mol]     -65.28681362 [kJ/mol]

  Special recipe for scaled SAPT0 (see Manual):
    Electrostatics sSAPT0         -37.46369849 [mEh]     -23.50882573 [kcal/mol]     -98.36092683 [kJ/mol]
    Exchange sSAPT0                22.78362181 [mEh]      14.29693853 [kcal/mol]      59.81839083 [kJ/mol]
    Induction sSAPT0               -7.65554008 [mEh]      -4.80392393 [kcal/mol]     -20.09961771 [kJ/mol]
    Dispersion sSAPT0              -3.52601012 [mEh]      -2.21260475 [kcal/mol]      -9.25753828 [kJ/mol]
  Total sSAPT0                    -25.86162687 [mEh]     -16.22841587 [kcal/mol]     -67.89969200 [kJ/mol]
  --------------------------------------------------------------------------------------------------------

*** Psi4 exiting successfully. Buy a developer a beer!
