                               Psi4 1.9 release

  ==> Input File <==

--------------------------------------------------------------------------
MEMORY 60 GB

molecule dimer {
0 1
O      0.000000     0.000000     0.000000
H     -0.823863    -0.134261     0.475658
H      0.311236    -0.890994    -0.179692
--
1 1
K      2.466222     0.000000     0.000000

units ang
no_reorient
no_com
symmetry c1
}

set {
basis        aug-cc-pVTZ
scf_type     df
}

energy("sapt2+")
--------------------------------------------------------------------------

  //              Dimer HF             //
    Molecular point group: c1
  Charge       = 1
  Multiplicity = 1
  Basis Set: AUG-CC-PVTZ
    Blend: AUG-CC-PVTZ
  Basis Set: (AUG-CC-PVTZ AUX)
    Blend: AUG-CC-PVTZ-JKFIT + DEF2-UNIVERSAL-JKFIT
  @DF-RHF Final Energy:  -675.08375395360281
    Total Energy =                       -675.0837539536029226
 Dipole X            :        -83.6169762           87.5804741            3.9634979
 Dipole Y            :          1.2857871           -1.9374512           -0.6516640
 Dipole Z            :         -0.3295029            0.5592947            0.2297918
 Magnitude           :                                                    4.0232805
  //            Monomer A HF           //
    Molecular point group: c1
  Multiplicity = 1
  Basis Set: AUG-CC-PVTZ
    Blend: AUG-CC-PVTZ
  Basis Set: (AUG-CC-PVTZ AUX)
    Blend: AUG-CC-PVTZ-JKFIT + DEF2-UNIVERSAL-JKFIT
  @DF-RHF Final Energy:   -76.06033700405918
    Total Energy =                        -76.0603370040591784
  //            Monomer B HF           //
    Molecular point group: c1

    Geometry (in Angstrom), charge = 1, multiplicity = 1:

       Center              X                  Y                   Z               Mass
    ------------   -----------------  -----------------  -----------------  -----------------
      Gh(O)           0.000000000000     0.000000000000     0.000000000000    15.994914619570
      Gh(H)          -0.823863000000    -0.134261000000     0.475658000000     1.007825032230
      Gh(H)           0.311236000000    -0.890994000000    -0.179692000000     1.007825032230
         K            2.466222000000     0.000000000000     0.000000000000    38.963706486400

  Charge       = 1
  Multiplicity = 1
  Basis Set: AUG-CC-PVTZ
    Blend: AUG-CC-PVTZ
  Basis Set: (AUG-CC-PVTZ AUX)
    Blend: AUG-CC-PVTZ-JKFIT + DEF2-UNIVERSAL-JKFIT

    Orbital Energies [Eh]
    ---------------------

    Doubly Occupied:

       1A   -133.753630     2A    -14.709098     3A    -11.739171
       4A    -11.739165     5A    -11.739164     6A     -1.964294
       7A     -1.170963     8A     -1.170892     9A     -1.170882

  @DF-RHF Final Energy:  -599.01750922972917

   => Energetics <=

    Nuclear Repulsion Energy =              0.0000000000000000
    One-Electron Energy =                -819.7205019948979725
    Two-Electron Energy =                 220.7029927651688297
    Total Energy =                       -599.0175092297291712
 Dipole X            :        -83.8891607           88.5491987            4.6600381
 Dipole Y            :         -0.0000948            0.0000000           -0.0000948
 Dipole Z            :         -0.0000110            0.0000000           -0.0000110
 Magnitude           :                                                    4.6600381

    SAPT Results
  --------------------------------------------------------------------------------------------------------
    Electrostatics                -18.81400399 [mEh]     -11.80596575 [kcal/mol]     -49.39616068 [kJ/mol]
      Elst10,r                    -19.11239515 [mEh]     -11.99320902 [kcal/mol]     -50.17958655 [kJ/mol]
      Elst12,r                      0.29839116 [mEh]       0.18724328 [kcal/mol]       0.78342587 [kJ/mol]

    Exchange                       23.71001421 [mEh]      14.87825854 [kcal/mol]      62.25063374 [kJ/mol]
      Exch10                       21.72795219 [mEh]      13.63449584 [kcal/mol]      57.04673061 [kJ/mol]
      Exch10(S^2)                  21.52753143 [mEh]      13.50872992 [kcal/mol]      56.52052598 [kJ/mol]
      Exch11(S^2)                   0.04208207 [mEh]       0.02640690 [kcal/mol]       0.11048646 [kJ/mol]
      Exch12(S^2)                   1.93997996 [mEh]       1.21735580 [kcal/mol]       5.09341667 [kJ/mol]

    Induction                      -9.76848190 [mEh]      -6.12981494 [kcal/mol]     -25.64714569 [kJ/mol]
      Ind20,r                     -24.49202554 [mEh]     -15.36897806 [kcal/mol]     -64.30380419 [kJ/mol]
      Ind22                        -3.95308256 [mEh]      -2.48059676 [kcal/mol]     -10.37881684 [kJ/mol]
      Exch-Ind20,r                 16.77713639 [mEh]      10.52781203 [kcal/mol]      44.04836553 [kJ/mol]
      Exch-Ind22                    2.70787752 [mEh]       1.69921880 [kcal/mol]       7.10953144 [kJ/mol]
      delta HF,r (2)               -0.80838771 [mEh]      -0.50727095 [kcal/mol]      -2.12242163 [kJ/mol]

    Dispersion                     -3.89808336 [mEh]      -2.44608424 [kcal/mol]     -10.23441645 [kJ/mol]
      Disp20                       -4.63509130 [mEh]      -2.90856370 [kcal/mol]     -12.16943054 [kJ/mol]
      Disp21                        0.52015057 [mEh]       0.32639941 [kcal/mol]       1.36565514 [kJ/mol]
      Disp22 (SDQ)                 -0.01491729 [mEh]      -0.00936074 [kcal/mol]      -0.03916534 [kJ/mol]
      Disp22 (T)                   -0.42554316 [mEh]      -0.26703236 [kcal/mol]      -1.11726341 [kJ/mol]
      Est. Disp22 (T)              -0.47725330 [mEh]      -0.29948096 [kcal/mol]      -1.25302835 [kJ/mol]
      Exch-Disp20                   0.70902796 [mEh]       0.44492176 [kcal/mol]       1.86155264 [kJ/mol]

  Total HF                         -5.90771981 [mEh]      -3.70715015 [kcal/mol]     -15.51071624 [kJ/mol]
  Total SAPT0                      -9.83378316 [mEh]      -6.17079210 [kcal/mol]     -25.81859413 [kJ/mol]
  Total SAPT2                      -8.79853502 [mEh]      -5.52116408 [kcal/mol]     -23.10055052 [kJ/mol]
  Total SAPT2+                     -8.77055504 [mEh]      -5.50360638 [kcal/mol]     -23.02708907 [kJ/mol]

  Special recipe for scaled SAPT0 (see Manual):
    Electrostatics sSAPT0         -19.11239515 [mEh]     -11.99320902 [kcal/mol]     -50.17958655 [kJ/mol]
    Exchange sSAPT0                21.72795219 [mEh]      13.63449584 [kcal/mol]      57.04673061 [kJ/mol]
    Induction sSAPT0               -8.05031669 [mEh]      -5.05164999 [kcal/mol]     -21.13610357 [kJ/mol]
    Dispersion sSAPT0              -3.90607531 [mEh]      -2.45109926 [kcal/mol]     -10.25539932 [kJ/mol]
  Total sSAPT0                     -9.34083497 [mEh]      -5.86146243 [kcal/mol]     -24.52435883 [kJ/mol]
  --------------------------------------------------------------------------------------------------------

*** Psi4 exiting successfully. Buy a developer a beer!
