                               Psi4 1.9 release

  ==> Input File <==

--------------------------------------------------------------------------
MEMORY 60 GB

molecule dimer {
0 1
O      0.000000     0.000000     0.000000
H     -0.675646     0.555220     0.390085
H      0.671619     0.723587    -0.387759
--
-1 1
F      2.426389     0.000000     0.000000

units ang
no_reorient
no_com
symmetry c1
}

set {
basis        aug-cc-pVTZ
scf_type     df
}

energy("sapt2+")
--------------------------------------------------------------------------

  //              Dimer HF             //
    Molecular point group: c1
  Charge       = -1
  Multiplicity = 1
  Basis Set: AUG-CC-PVTZ
    Blend: AUG-CC-PVTZ
  Basis Set: (AUG-CC-PVTZ AUX)
    Blend: AUG-CC-PVTZ-JKFIT
  @DF-RHF Final Energy:  -175.49894110665383
    Total Energy =                       -175.4989411066538594
 Dipole X            :        -45.4472726           41.2592862           -4.1879864
 Dipole Y            :         -1.6866178            2.4165950            0.7299772
 Dipole Z            :          0.0211185            0.0043955            0.0255140
 Magnitude           :                                                    4.2512054
  //            Monomer A HF           //
    Molecular point group: c1
  Multiplicity = 1
  Basis Set: AUG-CC-PVTZ
    Blend: AUG-CC-PVTZ
  Basis Set: (AUG-CC-PVTZ AUX)
    Blend: AUG-CC-PVTZ-JKFIT
  @DF-RHF Final Energy:   -76.04860037488540
    Total Energy =                        -76.0486003748854102
  //            Monomer B HF           //
    Molecular point group: c1

    Geometry (in Angstrom), charge = -1, multiplicity = 1:

       Center              X                  Y                   Z               Mass
    ------------   -----------------  -----------------  -----------------  -----------------
      Gh(O)           0.000000000000     0.000000000000     0.000000000000    15.994914619570
      Gh(H)          -0.675646000000     0.555220000000     0.390085000000     1.007825032230
      Gh(H)           0.671619000000     0.723587000000    -0.387759000000     1.007825032230
         F            2.426389000000     0.000000000000     0.000000000000    18.998403162730

  Charge       = -1
  Multiplicity = 1
  Basis Set: AUG-CC-PVTZ
    Blend: AUG-CC-PVTZ
  Basis Set: (AUG-CC-PVTZ AUX)
    Blend: AUG-CC-PVTZ-JKFIT

    Orbital Energies [Eh]
    ---------------------

    Doubly Occupied:

       1A    -25.833737     2A     -1.076011     3A     -0.180998
       4A     -0.180944     5A     -0.180936

  @DF-RHF Final Energy:   -99.45087430605568

   => Energetics <=

    Nuclear Repulsion Energy =              0.0000000000000000
    One-Electron Energy =                -143.9964971865192354
    Two-Electron Energy =                  44.5456228804635472
    Total Energy =                        -99.4508743060556810
 Dipole X            :        -45.8525077           41.2668962           -4.5856116
 Dipole Y            :          0.0000198            0.0000000            0.0000198
 Dipole Z            :          0.0000900            0.0000000            0.0000900
 Magnitude           :                                                    4.5856116

    SAPT Results
  --------------------------------------------------------------------------------------------------------
    Electrostatics                -18.83288404 [mEh]     -11.81781315 [kcal/mol]     -49.44573024 [kJ/mol]
      Elst10,r                    -14.62110158 [mEh]      -9.17487976 [kcal/mol]     -38.38769692 [kJ/mol]
      Elst12,r                     -4.21178246 [mEh]      -2.64293339 [kcal/mol]     -11.05803332 [kJ/mol]

    Exchange                       35.38966960 [mEh]      22.20735295 [kcal/mol]      92.91556473 [kJ/mol]
      Exch10                       27.92029804 [mEh]      17.52025153 [kcal/mol]      73.30473241 [kJ/mol]
      Exch10(S^2)                  27.62451368 [mEh]      17.33464404 [kcal/mol]      72.52815066 [kJ/mol]
      Exch11(S^2)                  -0.30513858 [mEh]      -0.19147735 [kcal/mol]      -0.80114122 [kJ/mol]
      Exch12(S^2)                   7.77451013 [mEh]       4.87857876 [kcal/mol]      20.41197354 [kJ/mol]

    Induction                     -15.38176220 [mEh]      -9.65220150 [kcal/mol]     -40.38481109 [kJ/mol]
      Ind20,r                     -21.90445581 [mEh]     -13.74525354 [kcal/mol]     -57.51014080 [kJ/mol]
      Ind22                        -5.92965724 [mEh]      -3.72091610 [kcal/mol]     -15.56831295 [kJ/mol]
      Exch-Ind20,r                 12.24030133 [mEh]       7.68090505 [kcal/mol]      32.13690672 [kJ/mol]
      Exch-Ind22                    3.31351722 [mEh]       2.07926345 [kcal/mol]       8.69963826 [kJ/mol]
      delta HF,r (2)               -3.10146770 [mEh]      -1.94620036 [kcal/mol]      -8.14290231 [kJ/mol]

    Dispersion                     -8.18668732 [mEh]      -5.13722385 [kcal/mol]     -21.49414461 [kJ/mol]
      Disp20                       -8.46396934 [mEh]      -5.31122095 [kcal/mol]     -22.22214845 [kJ/mol]
      Disp21                        0.32374376 [mEh]       0.20315228 [kcal/mol]       0.84998914 [kJ/mol]
      Disp22 (SDQ)                 -0.92043114 [mEh]      -0.57757926 [kcal/mol]      -2.41659163 [kJ/mol]
      Disp22 (T)                   -1.46094923 [mEh]      -0.91675948 [kcal/mol]      -3.83572166 [kJ/mol]
      Est. Disp22 (T)              -1.73757833 [mEh]      -1.09034686 [kcal/mol]      -4.56201128 [kJ/mol]
      Exch-Disp20                   2.61154773 [mEh]       1.63877094 [kcal/mol]       6.85661762 [kJ/mol]

  Total HF                          0.53357429 [mEh]       0.33482292 [kcal/mol]       1.40089910 [kJ/mol]
  Total SAPT0                      -5.31884733 [mEh]      -3.33762709 [kcal/mol]     -13.96463173 [kJ/mol]
  Total SAPT2                      -4.67739826 [mEh]      -2.93511172 [kcal/mol]     -12.28050743 [kJ/mol]
  Total SAPT2+                     -7.01166397 [mEh]      -4.39988557 [kcal/mol]     -18.40912121 [kJ/mol]

  Special recipe for scaled SAPT0 (see Manual):
    Electrostatics sSAPT0         -14.62110158 [mEh]      -9.17487976 [kcal/mol]     -38.38769692 [kJ/mol]
    Exchange sSAPT0                27.92029804 [mEh]      17.52025153 [kcal/mol]      73.30473241 [kJ/mol]
    Induction sSAPT0              -12.36821494 [mEh]      -7.76117205 [kcal/mol]     -32.47274385 [kJ/mol]
    Dispersion sSAPT0              -5.76763220 [mEh]      -3.61924385 [kcal/mol]     -15.14291626 [kJ/mol]
  Total sSAPT0                     -4.83665068 [mEh]      -3.03504412 [kcal/mol]     -12.69862461 [kJ/mol]
  --------------------------------------------------------------------------------------------------------

*** Psi4 exiting successfully. Buy a developer a beer!
