                               Psi4 1.9 release

  ==> Input File <==

--------------------------------------------------------------------------
MEMORY 60 GB

molecule dimer {
0 1
O      0.000000     0.000000     0.000000
H     -0.137753     0.944263     0.079531
H      0.918011    -0.036721    -0.530014
--
-1 1
F      2.426389     0.000000     0.000000

units ang
no_reorient
no_com
symmetry c1
}

set {
basis        aug-cc-pVTZ
scf_type     df
}

energy("sapt2+")
--------------------------------------------------------------------------

  //              Dimer HF             //
    Molecular point group: c1
  Charge       = -1
  Multiplicity = 1
  Basis Set: AUG-CC-PVTZ
    Blend: AUG-CC-PVTZ
  Basis Set: (AUG-CC-PVTZ AUX)
    Blend: AUG-CC-PVTZ-JKFIT
  @DF-RHF Final Energy:  -175.52448655162112
    Total Energy =                       -175.5244865516211235
 Dipole X            :        -46.1736215           42.7413701           -3.4322514
 Dipole Y            :         -1.1956898            1.7150058            0.5193160
 Dipole Z            :          0.6181635           -0.8512895           -0.2331260
 Magnitude           :                                                    3.4791359
  //            Monomer A HF           //
    Molecular point group: c1
  Multiplicity = 1
  Basis Set: AUG-CC-PVTZ
    Blend: AUG-CC-PVTZ
  Basis Set: (AUG-CC-PVTZ AUX)
    Blend: AUG-CC-PVTZ-JKFIT
  @DF-RHF Final Energy:   -76.04861182627238
    Total Energy =                        -76.0486118262723778
  //            Monomer B HF           //
    Molecular point group: c1

    Geometry (in Angstrom), charge = -1, multiplicity = 1:

       Center              X                  Y                   Z               Mass
    ------------   -----------------  -----------------  -----------------  -----------------
      Gh(O)           0.000000000000     0.000000000000     0.000000000000    15.994914619570
      Gh(H)          -0.137753000000     0.944263000000     0.079531000000     1.007825032230
      Gh(H)           0.918011000000    -0.036721000000    -0.530014000000     1.007825032230
         F            2.426389000000     0.000000000000     0.000000000000    18.998403162730

  Charge       = -1
  Multiplicity = 1
  Basis Set: AUG-CC-PVTZ
    Blend: AUG-CC-PVTZ
  Basis Set: (AUG-CC-PVTZ AUX)
    Blend: AUG-CC-PVTZ-JKFIT

    Orbital Energies [Eh]
    ---------------------

    Doubly Occupied:

       1A    -25.833800     2A     -1.076020     3A     -0.181017
       4A     -0.180953     5A     -0.180941

  @DF-RHF Final Energy:   -99.45089194437810

   => Energetics <=

    Nuclear Repulsion Energy =              0.0000000000000000
    One-Electron Energy =                -143.9963225299165117
    Two-Electron Energy =                  44.5454305855384192
    Total Energy =                        -99.4508919443780997
 Dipole X            :        -45.8525670           41.2668962           -4.5856708
 Dipole Y            :         -0.0001392            0.0000000           -0.0001392
 Dipole Z            :          0.0005429            0.0000000            0.0005429
 Magnitude           :                                                    4.5856708

    SAPT Results
  --------------------------------------------------------------------------------------------------------
    Electrostatics                -50.82913712 [mEh]     -31.89576509 [kcal/mol]    -133.45188113 [kJ/mol]
      Elst10,r                    -48.53847917 [mEh]     -30.45835552 [kcal/mol]    -127.43775950 [kJ/mol]
      Elst12,r                     -2.29065795 [mEh]      -1.43740957 [kcal/mol]      -6.01412163 [kJ/mol]

    Exchange                       59.70562699 [mEh]      37.46584657 [kcal/mol]     156.75710206 [kJ/mol]
      Exch10                       48.91360617 [mEh]      30.69375127 [kcal/mol]     128.42265531 [kJ/mol]
      Exch10(S^2)                  47.85999908 [mEh]      30.03260284 [kcal/mol]     125.65641027 [kJ/mol]
      Exch11(S^2)                   0.17231415 [mEh]       0.10812876 [kcal/mol]       0.45241073 [kJ/mol]
      Exch12(S^2)                  10.61970667 [mEh]       6.66396654 [kcal/mol]      27.88203602 [kJ/mol]

    Induction                     -29.08239672 [mEh]     -18.24947946 [kcal/mol]     -76.35582206 [kJ/mol]
      Ind20,r                     -34.38132848 [mEh]     -21.57460934 [kcal/mol]     -90.26816550 [kJ/mol]
      Ind22                        -7.72737169 [mEh]      -4.84899894 [kcal/mol]     -20.28821157 [kJ/mol]
      Exch-Ind20,r                 17.80999272 [mEh]      11.17593916 [kcal/mol]      46.76012944 [kJ/mol]
      Exch-Ind22                    4.00288295 [mEh]       2.51184697 [kcal/mol]      10.50956773 [kJ/mol]
      delta HF,r (2)               -8.78657221 [mEh]      -5.51365731 [kcal/mol]     -23.06914217 [kJ/mol]

    Dispersion                    -11.63867105 [mEh]      -7.30337634 [kcal/mol]     -30.55732662 [kJ/mol]
      Disp20                      -12.41102871 [mEh]      -7.78803809 [kcal/mol]     -32.58515139 [kJ/mol]
      Disp21                        0.54594376 [mEh]       0.34258488 [kcal/mol]       1.43337513 [kJ/mol]
      Disp22 (SDQ)                 -1.24507435 [mEh]      -0.78129595 [kcal/mol]      -3.26894225 [kJ/mol]
      Disp22 (T)                   -2.16182160 [mEh]      -1.35656353 [kcal/mol]      -5.67586182 [kJ/mol]
      Est. Disp22 (T)              -2.50477227 [mEh]      -1.57176833 [kcal/mol]      -6.57627870 [kJ/mol]
      Exch-Disp20                   3.97626053 [mEh]       2.49514115 [kcal/mol]      10.43967058 [kJ/mol]

  Total HF                        -24.98278097 [mEh]     -15.67693174 [kcal/mol]     -65.59228240 [kJ/mol]
  Total SAPT0                     -33.41754915 [mEh]     -20.96982868 [kcal/mol]     -87.73776321 [kJ/mol]
  Total SAPT2                     -28.64067503 [mEh]     -17.97229492 [kcal/mol]     -75.19608194 [kJ/mol]
  Total SAPT2+                    -31.84457790 [mEh]     -19.98277432 [kcal/mol]     -83.60792775 [kJ/mol]

  Special recipe for scaled SAPT0 (see Manual):
    Electrostatics sSAPT0         -48.53847917 [mEh]     -30.45835552 [kcal/mol]    -127.43775950 [kJ/mol]
    Exchange sSAPT0                48.91360617 [mEh]      30.69375127 [kcal/mol]     128.42265531 [kJ/mol]
    Induction sSAPT0              -24.15559749 [mEh]     -15.15786627 [kcal/mol]     -63.42051248 [kJ/mol]
    Dispersion sSAPT0              -8.16634024 [mEh]      -5.12445587 [kcal/mol]     -21.44072334 [kJ/mol]
  Total sSAPT0                    -31.94681072 [mEh]     -20.04692639 [kcal/mol]     -83.87634000 [kJ/mol]
  --------------------------------------------------------------------------------------------------------

*** Psi4 exiting successfully. Buy a developer a beer!
