                               Psi4 1.9 release

  ==> Input File <==

--------------------------------------------------------------------------
MEMORY 60 GB

molecule dimer {
0 1
O      0.000000     0.000000     0.000000
H      0.480835     0.780169    -0.277610
H      0.626645    -0.775519    -0.361794
--
-1 1
F      2.426389     0.000000     0.000000

units ang
no_reorient
no_com
symmetry c1
}

set {
basis        aug-cc-pVTZ
scf_type     df
}

energy("sapt2+")
--------------------------------------------------------------------------

  //              Dimer HF             //
    Molecular point group: c1
  Charge       = -1
  Multiplicity = 1
  Basis Set: AUG-CC-PVTZ
    Blend: AUG-CC-PVTZ
  Basis Set: (AUG-CC-PVTZ AUX)
    Blend: AUG-CC-PVTZ-JKFIT
  @DF-RHF Final Energy:  -175.51499863484455
    Total Energy =                       -175.5149986348445452
 Dipole X            :        -46.8064184           43.3597300           -3.4466884
 Dipole Y            :          0.0001272            0.0087872            0.0089145
 Dipole Z            :          0.8558012           -1.2082984           -0.3524972
 Magnitude           :                                                    3.4646781
  //            Monomer A HF           //
    Molecular point group: c1
  Multiplicity = 1
  Basis Set: AUG-CC-PVTZ
    Blend: AUG-CC-PVTZ
  Basis Set: (AUG-CC-PVTZ AUX)
    Blend: AUG-CC-PVTZ-JKFIT
  @DF-RHF Final Energy:   -76.04859716266657
    Total Energy =                        -76.0485971626665673
  //            Monomer B HF           //
    Molecular point group: c1

    Geometry (in Angstrom), charge = -1, multiplicity = 1:

       Center              X                  Y                   Z               Mass
    ------------   -----------------  -----------------  -----------------  -----------------
      Gh(O)           0.000000000000     0.000000000000     0.000000000000    15.994914619570
      Gh(H)           0.480835000000     0.780169000000    -0.277610000000     1.007825032230
      Gh(H)           0.626645000000    -0.775519000000    -0.361794000000     1.007825032230
         F            2.426389000000     0.000000000000     0.000000000000    18.998403162730

  Charge       = -1
  Multiplicity = 1
  Basis Set: AUG-CC-PVTZ
    Blend: AUG-CC-PVTZ
  Basis Set: (AUG-CC-PVTZ AUX)
    Blend: AUG-CC-PVTZ-JKFIT

    Orbital Energies [Eh]
    ---------------------

    Doubly Occupied:

       1A    -25.833749     2A     -1.076031     3A     -0.181026
       4A     -0.180957     5A     -0.180950

  @DF-RHF Final Energy:   -99.45088779465856

   => Energetics <=

    Nuclear Repulsion Energy =              0.0000000000000000
    One-Electron Energy =                -143.9963494305515042
    Two-Electron Energy =                  44.5454616358929556
    Total Energy =                        -99.4508877946585415
 Dipole X            :        -45.8530485           41.2668962           -4.5861523
 Dipole Y            :          0.0000538            0.0000000            0.0000538
 Dipole Z            :         -0.0000604            0.0000000           -0.0000604
 Magnitude           :                                                    4.5861523

    SAPT Results
  --------------------------------------------------------------------------------------------------------
    Electrostatics                -41.18092492 [mEh]     -25.84142052 [kcal/mol]    -108.12050347 [kJ/mol]
      Elst10,r                    -38.11744458 [mEh]     -23.91905759 [kcal/mol]    -100.07733695 [kJ/mol]
      Elst12,r                     -3.06348034 [mEh]      -1.92236294 [kcal/mol]      -8.04316652 [kJ/mol]

    Exchange                       44.74886624 [mEh]      28.08033750 [kcal/mol]     117.48813212 [kJ/mol]
      Exch10                       34.91278902 [mEh]      21.90810587 [kcal/mol]      91.66351496 [kJ/mol]
      Exch10(S^2)                  34.51222384 [mEh]      21.65674742 [kcal/mol]      90.61183121 [kJ/mol]
      Exch11(S^2)                   0.01286270 [mEh]       0.00807147 [kcal/mol]       0.03377101 [kJ/mol]
      Exch12(S^2)                   9.82321451 [mEh]       6.16416017 [kcal/mol]      25.79084615 [kJ/mol]

    Induction                     -15.15893531 [mEh]      -9.51237552 [kcal/mol]     -39.79977917 [kJ/mol]
      Ind20,r                     -25.18919296 [mEh]     -15.80645722 [kcal/mol]     -66.13421699 [kJ/mol]
      Ind22                        -7.45725492 [mEh]      -4.67949811 [kcal/mol]     -19.57902010 [kJ/mol]
      Exch-Ind20,r                 15.56272613 [mEh]       9.76575809 [kcal/mol]      40.85993184 [kJ/mol]
      Exch-Ind22                    4.60734158 [mEh]       2.89115049 [kcal/mol]      12.09657365 [kJ/mol]
      delta HF,r (2)               -2.68255515 [mEh]      -1.68332877 [kcal/mol]      -7.04304757 [kJ/mol]

    Dispersion                     -9.95094364 [mEh]      -6.24431141 [kcal/mol]     -26.12619893 [kJ/mol]
      Disp20                      -10.20630889 [mEh]      -6.40455552 [kcal/mol]     -26.79666030 [kJ/mol]
      Disp21                        0.29169340 [mEh]       0.18304037 [kcal/mol]       0.76584093 [kJ/mol]
      Disp22 (SDQ)                 -1.22177174 [mEh]      -0.76667334 [kcal/mol]      -3.20776126 [kJ/mol]
      Disp22 (T)                   -1.80141167 [mEh]      -1.13040289 [kcal/mol]      -4.72960569 [kJ/mol]
      Est. Disp22 (T)              -2.15213439 [mEh]      -1.35048472 [kcal/mol]      -5.65042805 [kJ/mol]
      Exch-Disp20                   3.33757797 [mEh]       2.09436180 [kcal/mol]       8.76280975 [kJ/mol]

  Total HF                        -15.51367752 [mEh]      -9.73497962 [kcal/mol]     -40.73115472 [kJ/mol]
  Total SAPT0                     -22.38240844 [mEh]     -14.04517334 [kcal/mol]     -58.76500526 [kJ/mol]
  Total SAPT2                     -18.45972491 [mEh]     -11.58365226 [kcal/mol]     -48.46600107 [kJ/mol]
  Total SAPT2+                    -21.54193763 [mEh]     -13.51776995 [kcal/mol]     -56.55834946 [kJ/mol]

  Special recipe for scaled SAPT0 (see Manual):
    Electrostatics sSAPT0         -38.11744458 [mEh]     -23.91905759 [kcal/mol]    -100.07733695 [kJ/mol]
    Exchange sSAPT0                34.91278902 [mEh]      21.90810587 [kcal/mol]      91.66351496 [kJ/mol]
    Induction sSAPT0              -11.76082319 [mEh]      -7.38002797 [kcal/mol]     -30.87803704 [kJ/mol]
    Dispersion sSAPT0              -6.75116436 [mEh]      -4.23641960 [kcal/mol]     -17.72517959 [kJ/mol]
  Total sSAPT0                    -21.71664310 [mEh]     -13.62739929 [kcal/mol]     -57.01703862 [kJ/mol]
  --------------------------------------------------------------------------------------------------------

*** Psi4 exiting successfully. Buy a developer a beer!
