                               Psi4 1.9 release

  ==> Input File <==

--------------------------------------------------------------------------
MEMORY 60 GB

molecule dimer {
0 1
O      0.000000     0.000000     0.000000
H     -0.528175     0.738224     0.304942
H      0.810922     0.498213    -0.468186
--
-1 1
F      2.426389     0.000000     0.000000

units ang
no_reorient
no_com
symmetry c1
}

set {
basis        aug-cc-pVTZ
scf_type     df
}

energy("sapt2+")
--------------------------------------------------------------------------

  //              Dimer HF             //
    Molecular point group: c1
  Charge       = -1
  Multiplicity = 1
  Basis Set: AUG-CC-PVTZ
    Blend: AUG-CC-PVTZ
  Basis Set: (AUG-CC-PVTZ AUX)
    Blend: AUG-CC-PVTZ-JKFIT
  @DF-RHF Final Energy:  -175.51017412854424
    Total Energy =                       -175.5101741285442358
 Dipole X            :        -45.6888359           41.8012105           -3.8876254
 Dipole Y            :         -1.6310524            2.3365273            0.7054749
 Dipole Z            :          0.2398653           -0.3084865           -0.0686211
 Magnitude           :                                                    3.9517129
  //            Monomer A HF           //
    Molecular point group: c1
  Multiplicity = 1
  Basis Set: AUG-CC-PVTZ
    Blend: AUG-CC-PVTZ
  Basis Set: (AUG-CC-PVTZ AUX)
    Blend: AUG-CC-PVTZ-JKFIT
  @DF-RHF Final Energy:   -76.04860418760521
    Total Energy =                        -76.0486041876052070
  //            Monomer B HF           //
    Molecular point group: c1

    Geometry (in Angstrom), charge = -1, multiplicity = 1:

       Center              X                  Y                   Z               Mass
    ------------   -----------------  -----------------  -----------------  -----------------
      Gh(O)           0.000000000000     0.000000000000     0.000000000000    15.994914619570
      Gh(H)          -0.528175000000     0.738224000000     0.304942000000     1.007825032230
      Gh(H)           0.810922000000     0.498213000000    -0.468186000000     1.007825032230
         F            2.426389000000     0.000000000000     0.000000000000    18.998403162730

  Charge       = -1
  Multiplicity = 1
  Basis Set: AUG-CC-PVTZ
    Blend: AUG-CC-PVTZ
  Basis Set: (AUG-CC-PVTZ AUX)
    Blend: AUG-CC-PVTZ-JKFIT

    Orbital Energies [Eh]
    ---------------------

    Doubly Occupied:

       1A    -25.833760     2A     -1.076009     3A     -0.180998
       4A     -0.180945     5A     -0.180936

  @DF-RHF Final Energy:   -99.45087968340992

   => Energetics <=

    Nuclear Repulsion Energy =              0.0000000000000000
    One-Electron Energy =                -143.9964641269147023
    Two-Electron Energy =                  44.5455844435047794
    Total Energy =                        -99.4508796834099229
 Dipole X            :        -45.8525889           41.2668962           -4.5856927
 Dipole Y            :         -0.0000301            0.0000000           -0.0000301
 Dipole Z            :          0.0002087            0.0000000            0.0002087
 Magnitude           :                                                    4.5856927

    SAPT Results
  --------------------------------------------------------------------------------------------------------
    Electrostatics                -32.42553173 [mEh]     -20.34732835 [kcal/mol]     -85.13322182 [kJ/mol]
      Elst10,r                    -29.02418577 [mEh]     -18.21295154 [kcal/mol]     -76.20298924 [kJ/mol]
      Elst12,r                     -3.40134596 [mEh]      -2.13437681 [kcal/mol]      -8.93023258 [kJ/mol]

    Exchange                       44.88898829 [mEh]      28.16826542 [kcal/mol]     117.85602251 [kJ/mol]
      Exch10                       36.20983077 [mEh]      22.72201185 [kcal/mol]      95.06889759 [kJ/mol]
      Exch10(S^2)                  35.66502764 [mEh]      22.38014272 [kcal/mol]      93.63851716 [kJ/mol]
      Exch11(S^2)                  -0.13531642 [mEh]      -0.08491233 [kcal/mol]      -0.35527320 [kJ/mol]
      Exch12(S^2)                   8.81447393 [mEh]       5.53116590 [kcal/mol]      23.14239812 [kJ/mol]

    Induction                     -20.92287809 [mEh]     -13.12930422 [kcal/mol]     -54.93300885 [kJ/mol]
      Ind20,r                     -26.82950881 [mEh]     -16.83577096 [kcal/mol]     -70.44086568 [kJ/mol]
      Ind22                        -6.50872300 [mEh]      -4.08428534 [kcal/mol]     -17.08864987 [kJ/mol]
      Exch-Ind20,r                 14.26961685 [mEh]       8.95431976 [kcal/mol]      37.46487388 [kJ/mol]
      Exch-Ind22                    3.46174744 [mEh]       2.17227931 [kcal/mol]       9.08881664 [kJ/mol]
      delta HF,r (2)               -5.31601057 [mEh]      -3.33584699 [kcal/mol]     -13.95718382 [kJ/mol]

    Dispersion                     -9.58059605 [mEh]      -6.01191479 [kcal/mol]     -25.15385147 [kJ/mol]
      Disp20                      -10.05348965 [mEh]      -6.30866000 [kcal/mol]     -26.39543344 [kJ/mol]
      Disp21                        0.38837485 [mEh]       0.24370890 [kcal/mol]       1.01967802 [kJ/mol]
      Disp22 (SDQ)                 -1.01407438 [mEh]      -0.63634128 [kcal/mol]      -2.66245193 [kJ/mol]
      Disp22 (T)                   -1.73955972 [mEh]      -1.09159021 [kcal/mol]      -4.56721342 [kJ/mol]
      Est. Disp22 (T)              -2.03721298 [mEh]      -1.27837045 [kcal/mol]      -5.34870195 [kJ/mol]
      Exch-Disp20                   3.13580612 [mEh]       1.96774805 [kcal/mol]       8.23305783 [kJ/mol]

  Total HF                        -10.69025753 [mEh]      -6.70823788 [kcal/mol]     -28.06726728 [kJ/mol]
  Total SAPT0                     -17.60794106 [mEh]     -11.04914983 [kcal/mol]     -46.22964289 [kJ/mol]
  Total SAPT2                     -15.37710506 [mEh]      -9.64927911 [kcal/mol]     -40.37258378 [kJ/mol]
  Total SAPT2+                    -18.04001758 [mEh]     -11.32028194 [kcal/mol]     -47.36405964 [kJ/mol]

  Special recipe for scaled SAPT0 (see Manual):
    Electrostatics sSAPT0         -29.02418577 [mEh]     -18.21295154 [kcal/mol]     -76.20298924 [kJ/mol]
    Exchange sSAPT0                36.20983077 [mEh]      22.72201185 [kcal/mol]      95.06889759 [kJ/mol]
    Induction sSAPT0              -17.21193354 [mEh]     -10.80065136 [kcal/mol]     -45.18992527 [kJ/mol]
    Dispersion sSAPT0              -6.77177366 [mEh]      -4.24935212 [kcal/mol]     -17.77928928 [kJ/mol]
  Total sSAPT0                    -16.79806219 [mEh]     -10.54094317 [kcal/mol]     -44.10330621 [kJ/mol]
  --------------------------------------------------------------------------------------------------------

*** Psi4 exiting successfully. Buy a developer a beer!
