                               Psi4 1.9 release

  ==> Input File <==

--------------------------------------------------------------------------
MEMORY 60 GB

molecule dimer {
0 1
O      0.000000     0.000000     0.000000
H     -0.777074     0.334379     0.448644
H      0.486546     0.899651    -0.280908
--
-1 1
F      2.426389     0.000000     0.000000

units ang
no_reorient
no_com
symmetry c1
}

set {
basis        aug-cc-pVTZ
scf_type     df
}

energy("sapt2+")
--------------------------------------------------------------------------

  //              Dimer HF             //
    Molecular point group: c1
  Charge       = -1
  Multiplicity = 1
  Basis Set: AUG-CC-PVTZ
    Blend: AUG-CC-PVTZ
  Basis Set: (AUG-CC-PVTZ AUX)
    Blend: AUG-CC-PVTZ-JKFIT
  @DF-RHF Final Energy:  -175.48879254631748
    Total Energy =                       -175.4887925463174838
 Dipole X            :        -45.1772843           40.7178778           -4.4594065
 Dipole Y            :         -1.6314223            2.3319787            0.7005565
 Dipole Z            :         -0.1971538            0.3169751            0.1198213
 Magnitude           :                                                    4.5156886
  //            Monomer A HF           //
    Molecular point group: c1
  Multiplicity = 1
  Basis Set: AUG-CC-PVTZ
    Blend: AUG-CC-PVTZ
  Basis Set: (AUG-CC-PVTZ AUX)
    Blend: AUG-CC-PVTZ-JKFIT
  @DF-RHF Final Energy:   -76.04859924017440
    Total Energy =                        -76.0485992401744113
  //            Monomer B HF           //
    Molecular point group: c1

    Geometry (in Angstrom), charge = -1, multiplicity = 1:

       Center              X                  Y                   Z               Mass
    ------------   -----------------  -----------------  -----------------  -----------------
      Gh(O)           0.000000000000     0.000000000000     0.000000000000    15.994914619570
      Gh(H)          -0.777074000000     0.334379000000     0.448644000000     1.007825032230
      Gh(H)           0.486546000000     0.899651000000    -0.280908000000     1.007825032230
         F            2.426389000000     0.000000000000     0.000000000000    18.998403162730

  Charge       = -1
  Multiplicity = 1
  Basis Set: AUG-CC-PVTZ
    Blend: AUG-CC-PVTZ
  Basis Set: (AUG-CC-PVTZ AUX)
    Blend: AUG-CC-PVTZ-JKFIT

    Orbital Energies [Eh]
    ---------------------

    Doubly Occupied:

       1A    -25.833736     2A     -1.076017     3A     -0.180999
       4A     -0.180949     5A     -0.180941

  @DF-RHF Final Energy:   -99.45086849270008

   => Energetics <=

    Nuclear Repulsion Energy =              0.0000000000000000
    One-Electron Energy =                -143.9964515537286616
    Two-Electron Energy =                  44.5455830610285801
    Total Energy =                        -99.4508684927000814
 Dipole X            :        -45.8524018           41.2668962           -4.5855056
 Dipole Y            :         -0.0000308            0.0000000           -0.0000308
 Dipole Z            :         -0.0000260            0.0000000           -0.0000260
 Magnitude           :                                                    4.5855056

    SAPT Results
  --------------------------------------------------------------------------------------------------------
    Electrostatics                 -6.78266652 [mEh]      -4.25618750 [kcal/mol]     -17.80788850 [kJ/mol]
      Elst10,r                     -1.95979835 [mEh]      -1.22979203 [kcal/mol]      -5.14544987 [kJ/mol]
      Elst12,r                     -4.82286817 [mEh]      -3.02639547 [kcal/mol]     -12.66243863 [kJ/mol]

    Exchange                       29.05272593 [mEh]      18.23086076 [kcal/mol]      76.27792142 [kJ/mol]
      Exch10                       22.46174907 [mEh]      14.09496034 [kcal/mol]      58.97331405 [kJ/mol]
      Exch10(S^2)                  22.28378326 [mEh]      13.98328510 [kcal/mol]      58.50606488 [kJ/mol]
      Exch11(S^2)                  -0.43257069 [mEh]      -0.27144220 [kcal/mol]      -1.13571418 [kJ/mol]
      Exch12(S^2)                   7.02354755 [mEh]       4.40734263 [kcal/mol]      18.44032155 [kJ/mol]

    Induction                     -12.14846906 [mEh]      -7.62327943 [kcal/mol]     -31.89580113 [kJ/mol]
      Ind20,r                     -18.68097065 [mEh]     -11.72248606 [kcal/mol]     -49.04688170 [kJ/mol]
      Ind22                        -5.51904950 [mEh]      -3.46325585 [kcal/mol]     -14.49026247 [kJ/mol]
      Exch-Ind20,r                 10.82242524 [mEh]       6.79117437 [kcal/mol]      28.41427355 [kJ/mol]
      Exch-Ind22                    3.19734460 [mEh]       2.00636403 [kcal/mol]       8.39462709 [kJ/mol]
      delta HF,r (2)               -1.96821874 [mEh]      -1.23507591 [kcal/mol]      -5.16755759 [kJ/mol]

    Dispersion                     -7.12779068 [mEh]      -4.47275618 [kcal/mol]     -18.71401186 [kJ/mol]
      Disp20                       -7.31687227 [mEh]      -4.59140667 [kcal/mol]     -19.21044549 [kJ/mol]
      Disp21                        0.31600736 [mEh]       0.19829761 [kcal/mol]       0.82967720 [kJ/mol]
      Disp22 (SDQ)                 -0.86774233 [mEh]      -0.54451653 [kcal/mol]      -2.27825717 [kJ/mol]
      Disp22 (T)                   -1.26248844 [mEh]      -0.79222346 [kcal/mol]      -3.31466295 [kJ/mol]
      Est. Disp22 (T)              -1.51273434 [mEh]      -0.94925513 [kcal/mol]      -3.97168346 [kJ/mol]
      Exch-Disp20                   2.25355090 [mEh]       1.41412454 [kcal/mol]       5.91669707 [kJ/mol]

  Total HF                         10.67518656 [mEh]       6.69878070 [kcal/mol]      28.02769844 [kJ/mol]
  Total SAPT0                       5.61186519 [mEh]       3.52149857 [kcal/mol]      14.73395002 [kJ/mol]
  Total SAPT2                       5.05826898 [mEh]       3.17411171 [kcal/mol]      13.28048337 [kJ/mol]
  Total SAPT2+                      2.99379966 [mEh]       1.87863765 [kcal/mol]       7.86021993 [kJ/mol]

  Special recipe for scaled SAPT0 (see Manual):
    Electrostatics sSAPT0          -1.95979835 [mEh]      -1.22979203 [kcal/mol]      -5.14544987 [kJ/mol]
    Exchange sSAPT0                22.46174907 [mEh]      14.09496034 [kcal/mol]      58.97331405 [kJ/mol]
    Induction sSAPT0               -9.56539321 [mEh]      -6.00237486 [kcal/mol]     -25.11393642 [kJ/mol]
    Dispersion sSAPT0              -5.00889616 [mEh]      -3.14312980 [kcal/mol]     -13.15085506 [kJ/mol]
  Total sSAPT0                      5.92766134 [mEh]       3.71966365 [kcal/mol]      15.56307270 [kJ/mol]
  --------------------------------------------------------------------------------------------------------

*** Psi4 exiting successfully. Buy a developer a beer!
