                               Psi4 1.9 release

  ==> Input File <==

--------------------------------------------------------------------------
MEMORY 60 GB

molecule dimer {
0 1
O      0.000000     0.000000     0.000000
H     -0.344710     0.870919     0.199018
H      0.894961     0.238886    -0.516706
--
-1 1
F      2.426389     0.000000     0.000000

units ang
no_reorient
no_com
symmetry c1
}

set {
basis        aug-cc-pVTZ
scf_type     df
}

energy("sapt2+")
--------------------------------------------------------------------------

  //              Dimer HF             //
    Molecular point group: c1
  Charge       = -1
  Multiplicity = 1
  Basis Set: AUG-CC-PVTZ
    Blend: AUG-CC-PVTZ
  Basis Set: (AUG-CC-PVTZ AUX)
    Blend: AUG-CC-PVTZ-JKFIT
  @DF-RHF Final Energy:  -175.51989863861385
    Total Energy =                       -175.5198986386138529
 Dipole X            :        -45.9197060           42.3067198           -3.6129862
 Dipole Y            :         -1.4646800            2.0972275            0.6325475
 Dipole Z            :          0.4441000           -0.6003433           -0.1562433
 Magnitude           :                                                    3.6712664
  //            Monomer A HF           //
    Molecular point group: c1
  Multiplicity = 1
  Basis Set: AUG-CC-PVTZ
    Blend: AUG-CC-PVTZ
  Basis Set: (AUG-CC-PVTZ AUX)
    Blend: AUG-CC-PVTZ-JKFIT
  @DF-RHF Final Energy:   -76.04861046105623
    Total Energy =                        -76.0486104610562279
  //            Monomer B HF           //
    Molecular point group: c1

    Geometry (in Angstrom), charge = -1, multiplicity = 1:

       Center              X                  Y                   Z               Mass
    ------------   -----------------  -----------------  -----------------  -----------------
      Gh(O)           0.000000000000     0.000000000000     0.000000000000    15.994914619570
      Gh(H)          -0.344710000000     0.870919000000     0.199018000000     1.007825032230
      Gh(H)           0.894961000000     0.238886000000    -0.516706000000     1.007825032230
         F            2.426389000000     0.000000000000     0.000000000000    18.998403162730

  Charge       = -1
  Multiplicity = 1
  Basis Set: AUG-CC-PVTZ
    Blend: AUG-CC-PVTZ
  Basis Set: (AUG-CC-PVTZ AUX)
    Blend: AUG-CC-PVTZ-JKFIT

    Orbital Energies [Eh]
    ---------------------

    Doubly Occupied:

       1A    -25.833784     2A     -1.076012     3A     -0.181007
       4A     -0.180947     5A     -0.180937

  @DF-RHF Final Energy:   -99.45088826893092

   => Energetics <=

    Nuclear Repulsion Energy =              0.0000000000000000
    One-Electron Energy =                -143.9964032633159832
    Two-Electron Energy =                  44.5455149943850586
    Total Energy =                        -99.4508882689309246
 Dipole X            :        -45.8525340           41.2668962           -4.5856379
 Dipole Y            :         -0.0001405            0.0000000           -0.0001405
 Dipole Z            :          0.0004089            0.0000000            0.0004089
 Magnitude           :                                                    4.5856379

    SAPT Results
  --------------------------------------------------------------------------------------------------------
    Electrostatics                -44.45086615 [mEh]     -27.89333963 [kcal/mol]    -116.70573300 [kJ/mol]
      Elst10,r                    -41.82713549 [mEh]     -26.24692378 [kcal/mol]    -109.81712911 [kJ/mol]
      Elst12,r                     -2.62373066 [mEh]      -1.64641584 [kcal/mol]      -6.88860389 [kJ/mol]

    Exchange                       54.81573918 [mEh]      34.39739565 [kcal/mol]     143.91870339 [kJ/mol]
      Exch10                       44.85137916 [mEh]      28.14466534 [kcal/mol]     117.75727977 [kJ/mol]
      Exch10(S^2)                  43.96968680 [mEh]      27.59139503 [kcal/mol]     115.44239680 [kJ/mol]
      Exch11(S^2)                   0.05339318 [mEh]       0.03350473 [kcal/mol]       0.14018378 [kJ/mol]
      Exch12(S^2)                   9.91096684 [mEh]       6.21922558 [kcal/mol]      26.02123984 [kJ/mol]

    Induction                     -26.92181611 [mEh]     -16.89369466 [kcal/mol]     -70.68321846 [kJ/mol]
      Ind20,r                     -32.03478256 [mEh]     -20.10212955 [kcal/mol]     -84.10731002 [kJ/mol]
      Ind22                        -7.20273149 [mEh]      -4.51978225 [kcal/mol]     -18.91076891 [kJ/mol]
      Exch-Ind20,r                 16.47861473 [mEh]      10.34048685 [kcal/mol]      43.26459700 [kJ/mol]
      Exch-Ind22                    3.70506767 [mEh]       2.32496506 [kcal/mol]       9.72765383 [kJ/mol]
      delta HF,r (2)               -7.86798446 [mEh]      -4.93723479 [kcal/mol]     -20.65739035 [kJ/mol]

    Dispersion                    -10.94008062 [mEh]      -6.86500424 [kcal/mol]     -28.72317772 [kJ/mol]
      Disp20                      -11.63032720 [mEh]      -7.29814050 [kcal/mol]     -30.53541987 [kJ/mol]
      Disp21                        0.49355009 [mEh]       0.30970736 [kcal/mol]       1.29581559 [kJ/mol]
      Disp22 (SDQ)                 -1.14130111 [mEh]      -0.71617726 [kcal/mol]      -2.99648565 [kJ/mol]
      Disp22 (T)                   -2.00435871 [mEh]      -1.25775408 [kcal/mol]      -5.26244307 [kJ/mol]
      Est. Disp22 (T)              -2.33914726 [mEh]      -1.46783706 [kcal/mol]      -6.14143027 [kJ/mol]
      Exch-Disp20                   3.67714485 [mEh]       2.30744323 [kcal/mol]       9.65434248 [kJ/mol]

  Total HF                        -20.39990863 [mEh]     -12.80113593 [kcal/mol]     -53.55995272 [kJ/mol]
  Total SAPT0                     -28.35309098 [mEh]     -17.79183320 [kcal/mol]     -74.44103011 [kJ/mol]
  Total SAPT2                     -24.51012543 [mEh]     -15.38033591 [kcal/mol]     -64.35132546 [kJ/mol]
  Total SAPT2+                    -27.49702370 [mEh]     -17.25464288 [kcal/mol]     -72.19342579 [kJ/mol]

  Special recipe for scaled SAPT0 (see Manual):
    Electrostatics sSAPT0         -41.82713549 [mEh]     -26.24692378 [kcal/mol]    -109.81712911 [kJ/mol]
    Exchange sSAPT0                44.85137916 [mEh]      28.14466534 [kcal/mol]     117.75727977 [kJ/mol]
    Induction sSAPT0              -22.41284032 [mEh]     -14.06426963 [kcal/mol]     -58.84490414 [kJ/mol]
    Dispersion sSAPT0              -7.72751165 [mEh]      -4.84908677 [kcal/mol]     -20.28857903 [kJ/mol]
  Total sSAPT0                    -27.11610830 [mEh]     -17.01561485 [kcal/mol]     -71.19333252 [kJ/mol]
  --------------------------------------------------------------------------------------------------------

*** Psi4 exiting successfully. Buy a developer a beer!
