                               Psi4 1.9 release

  ==> Input File <==

--------------------------------------------------------------------------
MEMORY 60 GB

molecule dimer {
0 1
O      0.000000     0.000000     0.000000
H      0.289581     0.897287    -0.167189
H      0.779120    -0.561815    -0.449825
--
-1 1
F      2.426389     0.000000     0.000000

units ang
no_reorient
no_com
symmetry c1
}

set {
basis        aug-cc-pVTZ
scf_type     df
}

energy("sapt2+")
--------------------------------------------------------------------------

  //              Dimer HF             //
    Molecular point group: c1
  Charge       = -1
  Multiplicity = 1
  Basis Set: AUG-CC-PVTZ
    Blend: AUG-CC-PVTZ
  Basis Set: (AUG-CC-PVTZ AUX)
    Blend: AUG-CC-PVTZ-JKFIT
  @DF-RHF Final Energy:  -175.51831483876651
    Total Energy =                       -175.5183148387665142
 Dipole X            :        -46.6859646           43.2864484           -3.3995162
 Dipole Y            :         -0.4358886            0.6339502            0.1980616
 Dipole Z            :          0.8286145           -1.1659875           -0.3373730
 Magnitude           :                                                    3.4219526
  //            Monomer A HF           //
    Molecular point group: c1
  Multiplicity = 1
  Basis Set: AUG-CC-PVTZ
    Blend: AUG-CC-PVTZ
  Basis Set: (AUG-CC-PVTZ AUX)
    Blend: AUG-CC-PVTZ-JKFIT
  @DF-RHF Final Energy:   -76.04859952187329
    Total Energy =                        -76.0485995218732853
  //            Monomer B HF           //
    Molecular point group: c1

    Geometry (in Angstrom), charge = -1, multiplicity = 1:

       Center              X                  Y                   Z               Mass
    ------------   -----------------  -----------------  -----------------  -----------------
      Gh(O)           0.000000000000     0.000000000000     0.000000000000    15.994914619570
      Gh(H)           0.289581000000     0.897287000000    -0.167189000000     1.007825032230
      Gh(H)           0.779120000000    -0.561815000000    -0.449825000000     1.007825032230
         F            2.426389000000     0.000000000000     0.000000000000    18.998403162730

  Charge       = -1
  Multiplicity = 1
  Basis Set: AUG-CC-PVTZ
    Blend: AUG-CC-PVTZ
  Basis Set: (AUG-CC-PVTZ AUX)
    Blend: AUG-CC-PVTZ-JKFIT

    Orbital Energies [Eh]
    ---------------------

    Doubly Occupied:

       1A    -25.833776     2A     -1.076031     3A     -0.181022
       4A     -0.180962     5A     -0.180950

  @DF-RHF Final Energy:   -99.45088428988640

   => Energetics <=

    Nuclear Repulsion Energy =              0.0000000000000000
    One-Electron Energy =                -143.9962860955920405
    Two-Electron Energy =                  44.5454018057056373
    Total Energy =                        -99.4508842898864032
 Dipole X            :        -45.8530961           41.2668962           -4.5862000
 Dipole Y            :          0.0002398            0.0000000            0.0002398
 Dipole Z            :          0.0001544            0.0000000            0.0001544
 Magnitude           :                                                    4.5862000

    SAPT Results
  --------------------------------------------------------------------------------------------------------
    Electrostatics                -45.23099436 [mEh]     -28.38287747 [kcal/mol]    -118.75395934 [kJ/mol]
      Elst10,r                    -42.34959652 [mEh]     -26.57477302 [kcal/mol]    -111.18885034 [kJ/mol]
      Elst12,r                     -2.88139785 [mEh]      -1.80810445 [kcal/mol]      -7.56510901 [kJ/mol]

    Exchange                       49.86554541 [mEh]      31.29110216 [kcal/mol]     130.92197144 [kJ/mol]
      Exch10                       39.56465485 [mEh]      24.82719575 [kcal/mol]     103.87698700 [kJ/mol]
      Exch10(S^2)                  38.97924611 [mEh]      24.45984621 [kcal/mol]     102.33999655 [kJ/mol]
      Exch11(S^2)                   0.08958145 [mEh]       0.05621321 [kcal/mol]       0.23519607 [kJ/mol]
      Exch12(S^2)                  10.21130910 [mEh]       6.40769320 [kcal/mol]      26.80978836 [kJ/mol]

    Induction                     -19.20631843 [mEh]     -12.05214677 [kcal/mol]     -50.42618208 [kJ/mol]
      Ind20,r                     -28.08960749 [mEh]     -17.62649482 [kcal/mol]     -73.74925431 [kJ/mol]
      Ind22                        -7.62537416 [mEh]      -4.78499453 [kcal/mol]     -20.02041711 [kJ/mol]
      Exch-Ind20,r                 16.44824997 [mEh]      10.32143268 [kcal/mol]      43.18487435 [kJ/mol]
      Exch-Ind22                    4.46514108 [mEh]       2.80191833 [kcal/mol]      11.72322629 [kJ/mol]
      delta HF,r (2)               -4.40472782 [mEh]      -2.76400844 [kcal/mol]     -11.56461130 [kJ/mol]

    Dispersion                    -10.59522012 [mEh]      -6.64860100 [kcal/mol]     -27.81774659 [kJ/mol]
      Disp20                      -11.01304077 [mEh]      -6.91078742 [kcal/mol]     -28.91473455 [kJ/mol]
      Disp21                        0.36778260 [mEh]       0.23078707 [kcal/mol]       0.96561309 [kJ/mol]
      Disp22 (SDQ)                 -1.24880544 [mEh]      -0.78363724 [kcal/mol]      -3.27873822 [kJ/mol]
      Disp22 (T)                   -1.94768521 [mEh]      -1.22219092 [kcal/mol]      -5.11364681 [kJ/mol]
      Est. Disp22 (T)              -2.29813494 [mEh]      -1.44210145 [kcal/mol]      -6.03375246 [kJ/mol]
      Exch-Disp20                   3.59697843 [mEh]       2.25713804 [kcal/mol]       9.44386556 [kJ/mol]

  Total HF                        -18.83102701 [mEh]     -11.81664785 [kcal/mol]     -49.44085459 [kJ/mol]
  Total SAPT0                     -26.24708935 [mEh]     -16.47029723 [kcal/mol]     -68.91172359 [kJ/mol]
  Total SAPT2                     -21.98782972 [mEh]     -13.79757146 [kcal/mol]     -57.72903899 [kJ/mol]
  Total SAPT2+                    -25.16698750 [mEh]     -15.79252308 [kcal/mol]     -66.07591657 [kJ/mol]

  Special recipe for scaled SAPT0 (see Manual):
    Electrostatics sSAPT0         -42.34959652 [mEh]     -26.57477302 [kcal/mol]    -111.18885034 [kJ/mol]
    Exchange sSAPT0                39.56465485 [mEh]      24.82719575 [kcal/mol]     103.87698700 [kJ/mol]
    Induction sSAPT0              -15.29381691 [mEh]      -9.59701500 [kcal/mol]     -40.15391076 [kJ/mol]
    Dispersion sSAPT0              -7.25155285 [mEh]      -4.55041811 [kcal/mol]     -19.03894937 [kJ/mol]
  Total sSAPT0                    -25.33031142 [mEh]     -15.89501039 [kcal/mol]     -66.50472347 [kJ/mol]
  --------------------------------------------------------------------------------------------------------

*** Psi4 exiting successfully. Buy a developer a beer!
