                               Psi4 1.9 release

  ==> Input File <==

--------------------------------------------------------------------------
MEMORY 60 GB

molecule dimer {
0 1
O      0.000000     0.000000     0.000000
H      0.639321     0.609884    -0.369112
H      0.431465    -0.936372    -0.249106
--
-1 1
F      2.426389     0.000000     0.000000

units ang
no_reorient
no_com
symmetry c1
}

set {
basis        aug-cc-pVTZ
scf_type     df
}

energy("sapt2+")
--------------------------------------------------------------------------

  //              Dimer HF             //
    Molecular point group: c1
  Charge       = -1
  Multiplicity = 1
  Basis Set: AUG-CC-PVTZ
    Blend: AUG-CC-PVTZ
  Basis Set: (AUG-CC-PVTZ AUX)
    Blend: AUG-CC-PVTZ-JKFIT
  @DF-RHF Final Energy:  -175.51483890346501
    Total Energy =                       -175.5148389034649767
 Dipole X            :        -46.7684562           43.2903884           -3.4780678
 Dipole Y            :          0.4392024           -0.6169729           -0.1777705
 Dipole Z            :          0.8300335           -1.1682627           -0.3382292
 Magnitude           :                                                    3.4989937
  //            Monomer A HF           //
    Molecular point group: c1
  Multiplicity = 1
  Basis Set: AUG-CC-PVTZ
    Blend: AUG-CC-PVTZ
  Basis Set: (AUG-CC-PVTZ AUX)
    Blend: AUG-CC-PVTZ-JKFIT
  @DF-RHF Final Energy:   -76.04860055905566
    Total Energy =                        -76.0486005590556573
  //            Monomer B HF           //
    Molecular point group: c1

    Geometry (in Angstrom), charge = -1, multiplicity = 1:

       Center              X                  Y                   Z               Mass
    ------------   -----------------  -----------------  -----------------  -----------------
      Gh(O)           0.000000000000     0.000000000000     0.000000000000    15.994914619570
      Gh(H)           0.639321000000     0.609884000000    -0.369112000000     1.007825032230
      Gh(H)           0.431465000000    -0.936372000000    -0.249106000000     1.007825032230
         F            2.426389000000     0.000000000000     0.000000000000    18.998403162730

  Charge       = -1
  Multiplicity = 1
  Basis Set: AUG-CC-PVTZ
    Blend: AUG-CC-PVTZ
  Basis Set: (AUG-CC-PVTZ AUX)
    Blend: AUG-CC-PVTZ-JKFIT

    Orbital Energies [Eh]
    ---------------------

    Doubly Occupied:

       1A    -25.833759     2A     -1.076031     3A     -0.181024
       4A     -0.180959     5A     -0.180950

  @DF-RHF Final Energy:   -99.45088547034896

   => Energetics <=

    Nuclear Repulsion Energy =              0.0000000000000000
    One-Electron Energy =                -143.9963259692148085
    Two-Electron Energy =                  44.5454404988658439
    Total Energy =                        -99.4508854703489646
 Dipole X            :        -45.8530556           41.2668962           -4.5861595
 Dipole Y            :         -0.0002360            0.0000000           -0.0002360
 Dipole Z            :          0.0000426            0.0000000            0.0000426
 Magnitude           :                                                    4.5861595

    SAPT Results
  --------------------------------------------------------------------------------------------------------
    Electrostatics                -40.61173526 [mEh]     -25.48424862 [kcal/mol]    -106.62609623 [kJ/mol]
      Elst10,r                    -37.65685715 [mEh]     -23.63003461 [kcal/mol]     -98.86806483 [kJ/mol]
      Elst12,r                     -2.95487811 [mEh]      -1.85421401 [kcal/mol]      -7.75803140 [kJ/mol]

    Exchange                       44.17538634 [mEh]      27.72047343 [kcal/mol]     115.98246085 [kJ/mol]
      Exch10                       34.45666750 [mEh]      21.62188529 [kcal/mol]      90.46596805 [kJ/mol]
      Exch10(S^2)                  34.06581840 [mEh]      21.37662378 [kcal/mol]      89.43979389 [kJ/mol]
      Exch11(S^2)                  -0.03516100 [mEh]      -0.02206386 [kcal/mol]      -0.09231520 [kJ/mol]
      Exch12(S^2)                   9.75387984 [mEh]       6.12065201 [kcal/mol]      25.60880800 [kJ/mol]

    Induction                     -14.98364017 [mEh]      -9.40237616 [kcal/mol]     -39.33954185 [kJ/mol]
      Ind20,r                     -24.96593156 [mEh]     -15.66635858 [kcal/mol]     -65.54804429 [kJ/mol]
      Ind22                        -7.42708141 [mEh]      -4.66056395 [kcal/mol]     -19.49979957 [kJ/mol]
      Exch-Ind20,r                 15.44975098 [mEh]       9.69486511 [kcal/mol]      40.56331562 [kJ/mol]
      Exch-Ind22                    4.59612565 [mEh]       2.88411239 [kcal/mol]      12.06712623 [kJ/mol]
      delta HF,r (2)               -2.63650382 [mEh]      -1.65443113 [kcal/mol]      -6.92213984 [kJ/mol]

    Dispersion                     -9.79528222 [mEh]      -6.14663239 [kcal/mol]     -25.71750992 [kJ/mol]
      Disp20                      -10.03138709 [mEh]      -6.29479043 [kcal/mol]     -26.33740317 [kJ/mol]
      Disp21                        0.28340741 [mEh]       0.17784083 [kcal/mol]       0.74408604 [kJ/mol]
      Disp22 (SDQ)                 -1.21141586 [mEh]      -0.76017493 [kcal/mol]      -3.18057191 [kJ/mol]
      Disp22 (T)                   -1.76558172 [mEh]      -1.10791926 [kcal/mol]      -4.63553417 [kJ/mol]
      Est. Disp22 (T)              -2.10820932 [mEh]      -1.32292132 [kcal/mol]      -5.53510280 [kJ/mol]
      Exch-Disp20                   3.27232264 [mEh]       2.05341346 [kcal/mol]       8.59148191 [kJ/mol]

  Total HF                        -15.35287406 [mEh]      -9.63407392 [kcal/mol]     -40.30896529 [kJ/mol]
  Total SAPT0                     -22.11193850 [mEh]     -13.87545089 [kcal/mol]     -58.05488654 [kJ/mol]
  Total SAPT2                     -18.17905354 [mEh]     -11.40752832 [kcal/mol]     -47.72909848 [kJ/mol]
  Total SAPT2+                    -21.21527131 [mEh]     -13.31278374 [kcal/mol]     -55.70068715 [kJ/mol]

  Special recipe for scaled SAPT0 (see Manual):
    Electrostatics sSAPT0         -37.65685715 [mEh]     -23.63003461 [kcal/mol]     -98.86806483 [kJ/mol]
    Exchange sSAPT0                34.45666750 [mEh]      21.62188529 [kcal/mol]      90.46596805 [kJ/mol]
    Induction sSAPT0              -11.61477851 [mEh]      -7.28838355 [kcal/mol]     -30.49459677 [kJ/mol]
    Dispersion sSAPT0              -6.64513370 [mEh]      -4.16988435 [kcal/mol]     -17.44679612 [kJ/mol]
  Total sSAPT0                    -21.46010186 [mEh]     -13.46641722 [kcal/mol]     -56.34348967 [kJ/mol]
  --------------------------------------------------------------------------------------------------------

*** Psi4 exiting successfully. Buy a developer a beer!
