                               Psi4 1.9 release

  ==> Input File <==

--------------------------------------------------------------------------
MEMORY 60 GB

molecule dimer {
0 1
O      0.000000     0.000000     0.000000
H      0.684363     0.541683    -0.395117
H      0.340875    -0.906600    -0.196804
--
-1 1
Cl     3.070352     0.000000     0.000000

units ang
no_reorient
no_com
symmetry c1
}

set {
basis        aug-cc-pVTZ
scf_type     df
}

energy("sapt2+")
--------------------------------------------------------------------------

  //              Dimer HF             //
    Molecular point group: c1
  Charge       = -1
  Multiplicity = 1
  Basis Set: AUG-CC-PVTZ
    Blend: AUG-CC-PVTZ
  Basis Set: (AUG-CC-PVTZ AUX)
    Blend: AUG-CC-PVTZ-JKFIT
  @DF-RHF Final Energy:  -535.64342576174511
    Total Energy =                       -535.6434257617452204
 Dipole X            :       -105.3827465          100.5735336           -4.8092129
 Dipole Y            :          0.4692234           -0.6895932           -0.2203698
 Dipole Z            :          0.8202981           -1.1185686           -0.2982705
 Magnitude           :                                                    4.8234901
  //            Monomer A HF           //
    Molecular point group: c1
  Multiplicity = 1
  Basis Set: AUG-CC-PVTZ
    Blend: AUG-CC-PVTZ
  Basis Set: (AUG-CC-PVTZ AUX)
    Blend: AUG-CC-PVTZ-JKFIT
  @DF-RHF Final Energy:   -76.05822735252897
    Total Energy =                        -76.0582273525289736
  //            Monomer B HF           //
    Molecular point group: c1

    Geometry (in Angstrom), charge = -1, multiplicity = 1:

       Center              X                  Y                   Z               Mass
    ------------   -----------------  -----------------  -----------------  -----------------
      Gh(O)           0.000000000000     0.000000000000     0.000000000000    15.994914619570
      Gh(H)           0.684363000000     0.541683000000    -0.395117000000     1.007825032230
      Gh(H)           0.340875000000    -0.906600000000    -0.196804000000     1.007825032230
         CL           3.070352000000     0.000000000000     0.000000000000    34.968852682000

  Charge       = -1
  Multiplicity = 1
  Basis Set: AUG-CC-PVTZ
    Blend: AUG-CC-PVTZ
  Basis Set: (AUG-CC-PVTZ AUX)
    Blend: AUG-CC-PVTZ-JKFIT

    Orbital Energies [Eh]
    ---------------------

    Doubly Occupied:

       1A   -104.506212     2A    -10.229799     3A     -7.695850
       4A     -7.695847     5A     -7.695823     6A     -0.733502
       7A     -0.150337     8A     -0.150327     9A     -0.150326

  @DF-RHF Final Energy:  -459.57349983366464

   => Energetics <=

    Nuclear Repulsion Energy =              0.0000000000000000
    One-Electron Energy =                -641.1309515511592281
    Two-Electron Energy =                 181.5574517174946152
    Total Energy =                       -459.5734998336646413
 Dipole X            :       -104.4382746           98.6361146           -5.8021600
 Dipole Y            :          0.0000416            0.0000000            0.0000416
 Dipole Z            :          0.0001634            0.0000000            0.0001634
 Magnitude           :                                                    5.8021600

    SAPT Results
  --------------------------------------------------------------------------------------------------------
    Electrostatics                -23.91036795 [mEh]     -15.00398241 [kcal/mol]     -62.77666241 [kJ/mol]
      Elst10,r                    -23.62527509 [mEh]     -14.82508394 [kcal/mol]     -62.02815119 [kJ/mol]
      Elst12,r                     -0.28509287 [mEh]      -0.17889847 [kcal/mol]      -0.74851122 [kJ/mol]

    Exchange                       19.79142144 [mEh]      12.41930446 [kcal/mol]      51.96236984 [kJ/mol]
      Exch10                       17.45553216 [mEh]      10.95351180 [kcal/mol]      45.82949338 [kJ/mol]
      Exch10(S^2)                  17.28657600 [mEh]      10.84749021 [kcal/mol]      45.38589903 [kJ/mol]
      Exch11(S^2)                   0.58807202 [mEh]       0.36902076 [kcal/mol]       1.54398287 [kJ/mol]
      Exch12(S^2)                   1.74781726 [mEh]       1.09677189 [kcal/mol]       4.58889359 [kJ/mol]

    Induction                      -6.16379430 [mEh]      -3.86783931 [kcal/mol]     -16.18303969 [kJ/mol]
      Ind20,r                     -14.57775186 [mEh]      -9.14767740 [kcal/mol]     -38.27388223 [kJ/mol]
      Ind22                        -2.22472263 [mEh]      -1.39603453 [kcal/mol]      -5.84100846 [kJ/mol]
      Exch-Ind20,r                 10.41709224 [mEh]       6.53682407 [kcal/mol]      27.35007191 [kJ/mol]
      Exch-Ind22                    1.58976096 [mEh]       0.99759007 [kcal/mol]       4.17391683 [kJ/mol]
      delta HF,r (2)               -1.36817301 [mEh]      -0.85854153 [kcal/mol]      -3.59213775 [kJ/mol]

    Dispersion                     -6.26933174 [mEh]      -3.93406506 [kcal/mol]     -16.46012821 [kJ/mol]
      Disp20                       -7.25374611 [mEh]      -4.55179440 [kcal/mol]     -19.04470779 [kJ/mol]
      Disp21                        0.42228570 [mEh]       0.26498828 [kcal/mol]       1.10871095 [kJ/mol]
      Disp22 (SDQ)                 -0.05704138 [mEh]      -0.03579401 [kcal/mol]      -0.14976212 [kJ/mol]
      Disp22 (T)                   -1.13685547 [mEh]      -0.71338758 [kcal/mol]      -2.98481362 [kJ/mol]
      Est. Disp22 (T)              -1.31994104 [mEh]      -0.82827551 [kcal/mol]      -3.46550473 [kJ/mol]
      Exch-Disp20                   1.93911109 [mEh]       1.21681058 [kcal/mol]       5.09113548 [kJ/mol]

  Total HF                        -11.69857555 [mEh]      -7.34096699 [kcal/mol]     -30.71460588 [kJ/mol]
  Total SAPT0                     -17.01321057 [mEh]     -10.67595081 [kcal/mol]     -44.66817819 [kJ/mol]
  Total SAPT2                     -15.59737582 [mEh]      -9.78750109 [kcal/mol]     -40.95090457 [kJ/mol]
  Total SAPT2+                    -16.55207254 [mEh]     -10.38658233 [kcal/mol]     -43.45746047 [kJ/mol]

  Special recipe for scaled SAPT0 (see Manual):
    Electrostatics sSAPT0         -23.62527509 [mEh]     -14.82508394 [kcal/mol]     -62.02815119 [kJ/mol]
    Exchange sSAPT0                17.45553216 [mEh]      10.95351180 [kcal/mol]      45.82949338 [kJ/mol]
    Induction sSAPT0               -5.22039267 [mEh]      -3.27584586 [kcal/mol]     -13.70613906 [kJ/mol]
    Dispersion sSAPT0              -5.25721982 [mEh]      -3.29895524 [kcal/mol]     -13.80282874 [kJ/mol]
  Total sSAPT0                    -16.64735541 [mEh]     -10.44637323 [kcal/mol]     -43.70762561 [kJ/mol]
  --------------------------------------------------------------------------------------------------------

*** Psi4 exiting successfully. Buy a developer a beer!
