                               Psi4 1.9 release

  ==> Input File <==

--------------------------------------------------------------------------
MEMORY 60 GB

molecule dimer {
0 1
O      0.000000     0.000000     0.000000
H      0.358120     0.864229    -0.206761
H      0.687776    -0.588334    -0.397088
--
-1 1
Cl     3.070352     0.000000     0.000000

units ang
no_reorient
no_com
symmetry c1
}

set {
basis        aug-cc-pVTZ
scf_type     df
}

energy("sapt2+")
--------------------------------------------------------------------------

  //              Dimer HF             //
    Molecular point group: c1
  Charge       = -1
  Multiplicity = 1
  Basis Set: AUG-CC-PVTZ
    Blend: AUG-CC-PVTZ
  Basis Set: (AUG-CC-PVTZ AUX)
    Blend: AUG-CC-PVTZ-JKFIT
  @DF-RHF Final Energy:  -535.64366898260687
    Total Energy =                       -535.6436689826068687
 Dipole X            :       -105.4026878          100.6125716           -4.7901162
 Dipole Y            :         -0.3456232            0.5213660            0.1757428
 Dipole Z            :          0.8360112           -1.1411092           -0.3050980
 Magnitude           :                                                    4.8030389
  //            Monomer A HF           //
    Molecular point group: c1
  Multiplicity = 1
  Basis Set: AUG-CC-PVTZ
    Blend: AUG-CC-PVTZ
  Basis Set: (AUG-CC-PVTZ AUX)
    Blend: AUG-CC-PVTZ-JKFIT
  @DF-RHF Final Energy:   -76.05822555223941
    Total Energy =                        -76.0582255522394064
  //            Monomer B HF           //
    Molecular point group: c1

    Geometry (in Angstrom), charge = -1, multiplicity = 1:

       Center              X                  Y                   Z               Mass
    ------------   -----------------  -----------------  -----------------  -----------------
      Gh(O)           0.000000000000     0.000000000000     0.000000000000    15.994914619570
      Gh(H)           0.358120000000     0.864229000000    -0.206761000000     1.007825032230
      Gh(H)           0.687776000000    -0.588334000000    -0.397088000000     1.007825032230
         CL           3.070352000000     0.000000000000     0.000000000000    34.968852682000

  Charge       = -1
  Multiplicity = 1
  Basis Set: AUG-CC-PVTZ
    Blend: AUG-CC-PVTZ
  Basis Set: (AUG-CC-PVTZ AUX)
    Blend: AUG-CC-PVTZ-JKFIT

    Orbital Energies [Eh]
    ---------------------

    Doubly Occupied:

       1A   -104.506212     2A    -10.229799     3A     -7.695850
       4A     -7.695847     5A     -7.695823     6A     -0.733502
       7A     -0.150337     8A     -0.150327     9A     -0.150326

  @DF-RHF Final Energy:  -459.57349954469265

   => Energetics <=

    Nuclear Repulsion Energy =              0.0000000000000000
    One-Electron Energy =                -641.1309519854697783
    Two-Electron Energy =                 181.5574524407771264
    Total Energy =                       -459.5734995446926519
 Dipole X            :       -104.4382443           98.6361146           -5.8021297
 Dipole Y            :         -0.0000349            0.0000000           -0.0000349
 Dipole Z            :          0.0001646            0.0000000            0.0001646
 Magnitude           :                                                    5.8021297

    SAPT Results
  --------------------------------------------------------------------------------------------------------
    Electrostatics                -24.27950685 [mEh]     -15.23562057 [kcal/mol]     -63.74583646 [kJ/mol]
      Elst10,r                    -23.99062659 [mEh]     -15.05434547 [kcal/mol]     -62.98738143 [kJ/mol]
      Elst12,r                     -0.28888026 [mEh]      -0.18127510 [kcal/mol]      -0.75845503 [kJ/mol]

    Exchange                       20.08723390 [mEh]      12.60492958 [kcal/mol]      52.73902535 [kJ/mol]
      Exch10                       17.71641702 [mEh]      11.11721952 [kcal/mol]      46.51444649 [kJ/mol]
      Exch10(S^2)                  17.54049999 [mEh]      11.00682992 [kcal/mol]      46.05257638 [kJ/mol]
      Exch11(S^2)                   0.62399619 [mEh]       0.39156352 [kcal/mol]       1.63830177 [kJ/mol]
      Exch12(S^2)                   1.74682069 [mEh]       1.09614653 [kcal/mol]       4.58627709 [kJ/mol]

    Induction                      -6.31587245 [mEh]      -3.96326980 [kcal/mol]     -16.58232084 [kJ/mol]
      Ind20,r                     -14.72616978 [mEh]      -9.24081105 [kcal/mol]     -38.66355344 [kJ/mol]
      Ind22                        -2.24108274 [mEh]      -1.40630065 [kcal/mol]      -5.88396192 [kJ/mol]
      Exch-Ind20,r                 10.48000927 [mEh]       6.57630510 [kcal/mol]      27.51526054 [kJ/mol]
      Exch-Ind22                    1.59488640 [mEh]       1.00080632 [kcal/mol]       4.18737366 [kJ/mol]
      delta HF,r (2)               -1.42351559 [mEh]      -0.89326952 [kcal/mol]      -3.73743968 [kJ/mol]

    Dispersion                     -6.34788714 [mEh]      -3.98335932 [kcal/mol]     -16.66637540 [kJ/mol]
      Disp20                       -7.34581175 [mEh]      -4.60956647 [kcal/mol]     -19.28642610 [kJ/mol]
      Disp21                        0.42837795 [mEh]       0.26881122 [kcal/mol]       1.12470614 [kJ/mol]
      Disp22 (SDQ)                 -0.05455295 [mEh]      -0.03423249 [kcal/mol]      -0.14322875 [kJ/mol]
      Disp22 (T)                   -1.15228918 [mEh]      -0.72307238 [kcal/mol]      -3.02533484 [kJ/mol]
      Est. Disp22 (T)              -1.33907603 [mEh]      -0.84028290 [kcal/mol]      -3.51574364 [kJ/mol]
      Exch-Disp20                   1.96317564 [mEh]       1.23191131 [kcal/mol]       5.15431694 [kJ/mol]

  Total HF                        -11.94388567 [mEh]      -7.49490141 [kcal/mol]     -31.35866752 [kJ/mol]
  Total SAPT0                     -17.32652178 [mEh]     -10.87255657 [kcal/mol]     -45.49077668 [kJ/mol]
  Total SAPT2                     -15.89078151 [mEh]      -9.97161594 [kcal/mol]     -41.72124110 [kJ/mol]
  Total SAPT2+                    -16.85603254 [mEh]     -10.57732011 [kcal/mol]     -44.25550734 [kJ/mol]

  Special recipe for scaled SAPT0 (see Manual):
    Electrostatics sSAPT0         -23.99062659 [mEh]     -15.05434547 [kcal/mol]     -62.98738143 [kJ/mol]
    Exchange sSAPT0                17.71641702 [mEh]      11.11721952 [kcal/mol]      46.51444649 [kJ/mol]
    Induction sSAPT0               -5.35118509 [mEh]      -3.35791934 [kcal/mol]     -14.04953452 [kJ/mol]
    Dispersion sSAPT0              -5.32297454 [mEh]      -3.34021695 [kcal/mol]     -13.97546773 [kJ/mol]
  Total sSAPT0                    -16.94836920 [mEh]     -10.63526224 [kcal/mol]     -44.49793720 [kJ/mol]
  --------------------------------------------------------------------------------------------------------

*** Psi4 exiting successfully. Buy a developer a beer!
