                               Psi4 1.9 release

  ==> Input File <==

--------------------------------------------------------------------------
MEMORY 60 GB

molecule dimer {
0 1
O      0.000000     0.000000     0.000000
H     -0.748444     0.413522     0.432114
H      0.509513     0.794175    -0.294167
--
-1 1
Cl     3.070352     0.000000     0.000000

units ang
no_reorient
no_com
symmetry c1
}

set {
basis        aug-cc-pVTZ
scf_type     df
}

energy("sapt2+")
--------------------------------------------------------------------------

  //              Dimer HF             //
    Molecular point group: c1
  Charge       = -1
  Multiplicity = 1
  Basis Set: AUG-CC-PVTZ
    Blend: AUG-CC-PVTZ
  Basis Set: (AUG-CC-PVTZ AUX)
    Blend: AUG-CC-PVTZ-JKFIT
  @DF-RHF Final Energy:  -535.62660722704720
    Total Energy =                       -535.6266072270472023
 Dipole X            :       -103.9671395           98.1846005           -5.7825390
 Dipole Y            :         -1.6191597            2.2822166            0.6630569
 Dipole Z            :         -0.1409912            0.2606820            0.1196908
 Magnitude           :                                                    5.8216602
  //            Monomer A HF           //
    Molecular point group: c1
  Multiplicity = 1
  Basis Set: AUG-CC-PVTZ
    Blend: AUG-CC-PVTZ
  Basis Set: (AUG-CC-PVTZ AUX)
    Blend: AUG-CC-PVTZ-JKFIT
  @DF-RHF Final Energy:   -76.05822158476603
    Total Energy =                        -76.0582215847660450
  //            Monomer B HF           //
    Molecular point group: c1

    Geometry (in Angstrom), charge = -1, multiplicity = 1:

       Center              X                  Y                   Z               Mass
    ------------   -----------------  -----------------  -----------------  -----------------
      Gh(O)           0.000000000000     0.000000000000     0.000000000000    15.994914619570
      Gh(H)          -0.748444000000     0.413522000000     0.432114000000     1.007825032230
      Gh(H)           0.509513000000     0.794175000000    -0.294167000000     1.007825032230
         CL           3.070352000000     0.000000000000     0.000000000000    34.968852682000

  Charge       = -1
  Multiplicity = 1
  Basis Set: AUG-CC-PVTZ
    Blend: AUG-CC-PVTZ
  Basis Set: (AUG-CC-PVTZ AUX)
    Blend: AUG-CC-PVTZ-JKFIT

    Orbital Energies [Eh]
    ---------------------

    Doubly Occupied:

       1A   -104.506153     2A    -10.229786     3A     -7.695831
       4A     -7.695829     5A     -7.695809     6A     -0.733504
       7A     -0.150338     8A     -0.150328     9A     -0.150327

  @DF-RHF Final Energy:  -459.57349551365519

   => Energetics <=

    Nuclear Repulsion Energy =              0.0000000000000000
    One-Electron Energy =                -641.1311766794868845
    Two-Electron Energy =                 181.5576811658316672
    Total Energy =                       -459.5734955136551889
 Dipole X            :       -104.4380363           98.6361146           -5.8019217
 Dipole Y            :         -0.0000770            0.0000000           -0.0000770
 Dipole Z            :         -0.0000002            0.0000000           -0.0000002
 Magnitude           :                                                    5.8019217

    SAPT Results
  --------------------------------------------------------------------------------------------------------
    Electrostatics                 -3.81929762 [mEh]      -2.39664544 [kcal/mol]     -10.02756451 [kJ/mol]
      Elst10,r                     -2.31030329 [mEh]      -1.44973720 [kcal/mol]      -6.06570044 [kJ/mol]
      Elst12,r                     -1.50899433 [mEh]      -0.94690824 [kcal/mol]      -3.96186406 [kJ/mol]

    Exchange                       13.34943533 [mEh]       8.37689714 [kcal/mol]      35.04893763 [kJ/mol]
      Exch10                       11.88708974 [mEh]       7.45926143 [kcal/mol]      31.20954982 [kJ/mol]
      Exch10(S^2)                  11.81001955 [mEh]       7.41089915 [kcal/mol]      31.00720206 [kJ/mol]
      Exch11(S^2)                   0.12329536 [mEh]       0.07736901 [kcal/mol]       0.32371193 [kJ/mol]
      Exch12(S^2)                   1.33905023 [mEh]       0.84026670 [kcal/mol]       3.51567588 [kJ/mol]

    Induction                      -4.93117731 [mEh]      -3.09436048 [kcal/mol]     -12.94680425 [kJ/mol]
      Ind20,r                     -10.90524015 [mEh]      -6.84314151 [kcal/mol]     -28.63170407 [kJ/mol]
      Ind22                        -1.48800223 [mEh]      -0.93373550 [kcal/mol]      -3.90674932 [kJ/mol]
      Exch-Ind20,r                  7.50276465 [mEh]       4.70805590 [kcal/mol]      19.69850587 [kJ/mol]
      Exch-Ind22                    1.02374000 [mEh]       0.64240655 [kcal/mol]       2.68782899 [kJ/mol]
      delta HF,r (2)               -1.06443958 [mEh]      -0.66794592 [kcal/mol]      -2.79468572 [kJ/mol]

    Dispersion                     -4.64894844 [mEh]      -2.91725919 [kcal/mol]     -12.20581245 [kJ/mol]
      Disp20                       -5.52616770 [mEh]      -3.46772259 [kcal/mol]     -14.50895130 [kJ/mol]
      Disp21                        0.43514832 [mEh]       0.27305969 [kcal/mol]       1.14248175 [kJ/mol]
      Disp22 (SDQ)                 -0.01027477 [mEh]      -0.00644751 [kcal/mol]      -0.02697640 [kJ/mol]
      Disp22 (T)                   -0.81748156 [mEh]      -0.51297743 [kcal/mol]      -2.14629755 [kJ/mol]
      Est. Disp22 (T)              -0.97363100 [mEh]      -0.61096267 [kcal/mol]      -2.55626783 [kJ/mol]
      Exch-Disp20                   1.42597670 [mEh]       0.89481389 [kcal/mol]       3.74390132 [kJ/mol]

  Total HF                          5.10987137 [mEh]       3.20649270 [kcal/mol]      13.41596544 [kJ/mol]
  Total SAPT0                       1.00968038 [mEh]       0.63358400 [kcal/mol]       2.65091546 [kJ/mol]
  Total SAPT2                       0.49876940 [mEh]       0.31298253 [kcal/mol]       1.30951889 [kJ/mol]
  Total SAPT2+                     -0.04998804 [mEh]      -0.03136797 [kcal/mol]      -0.13124358 [kJ/mol]

  Special recipe for scaled SAPT0 (see Manual):
    Electrostatics sSAPT0          -2.31030329 [mEh]      -1.44973720 [kcal/mol]      -6.06570044 [kJ/mol]
    Exchange sSAPT0                11.88708974 [mEh]       7.45926143 [kcal/mol]      31.20954982 [kJ/mol]
    Induction sSAPT0               -4.31906913 [mEh]      -2.71025679 [kcal/mol]     -11.33971443 [kJ/mol]
    Dispersion sSAPT0              -4.07209137 [mEh]      -2.55527591 [kcal/mol]     -10.69127442 [kJ/mol]
  Total sSAPT0                      1.18562596 [mEh]       0.74399152 [kcal/mol]       3.11286053 [kJ/mol]
  --------------------------------------------------------------------------------------------------------

*** Psi4 exiting successfully. Buy a developer a beer!
