                               Psi4 1.9 release

  ==> Input File <==

--------------------------------------------------------------------------
MEMORY 60 GB

molecule dimer {
0 1
O      0.000000     0.000000     0.000000
H      0.152206     0.941808    -0.087876
H      0.796212    -0.362740    -0.459693
--
-1 1
Cl     3.070352     0.000000     0.000000

units ang
no_reorient
no_com
symmetry c1
}

set {
basis        aug-cc-pVTZ
scf_type     df
}

energy("sapt2+")
--------------------------------------------------------------------------

  //              Dimer HF             //
    Molecular point group: c1
  Charge       = -1
  Multiplicity = 1
  Basis Set: AUG-CC-PVTZ
    Blend: AUG-CC-PVTZ
  Basis Set: (AUG-CC-PVTZ AUX)
    Blend: AUG-CC-PVTZ-JKFIT
  @DF-RHF Final Energy:  -535.64413615370574
    Total Energy =                       -535.6441361537057446
 Dipole X            :       -105.2415593          100.4283649           -4.8131945
 Dipole Y            :         -0.7395256            1.0942799            0.3547543
 Dipole Z            :          0.7716925           -1.0347554           -0.2630630
 Magnitude           :                                                    4.8334143
  //            Monomer A HF           //
    Molecular point group: c1
  Multiplicity = 1
  Basis Set: AUG-CC-PVTZ
    Blend: AUG-CC-PVTZ
  Basis Set: (AUG-CC-PVTZ AUX)
    Blend: AUG-CC-PVTZ-JKFIT
  @DF-RHF Final Energy:   -76.05823370437744
    Total Energy =                        -76.0582337043774572
  //            Monomer B HF           //
    Molecular point group: c1

    Geometry (in Angstrom), charge = -1, multiplicity = 1:

       Center              X                  Y                   Z               Mass
    ------------   -----------------  -----------------  -----------------  -----------------
      Gh(O)           0.000000000000     0.000000000000     0.000000000000    15.994914619570
      Gh(H)           0.152206000000     0.941808000000    -0.087876000000     1.007825032230
      Gh(H)           0.796212000000    -0.362740000000    -0.459693000000     1.007825032230
         CL           3.070352000000     0.000000000000     0.000000000000    34.968852682000

  Charge       = -1
  Multiplicity = 1
  Basis Set: AUG-CC-PVTZ
    Blend: AUG-CC-PVTZ
  Basis Set: (AUG-CC-PVTZ AUX)
    Blend: AUG-CC-PVTZ-JKFIT

    Orbital Energies [Eh]
    ---------------------

    Doubly Occupied:

       1A   -104.506224     2A    -10.229802     3A     -7.695855
       4A     -7.695852     5A     -7.695823     6A     -0.733501
       7A     -0.150337     8A     -0.150328     9A     -0.150327

  @DF-RHF Final Energy:  -459.57350203208534

   => Energetics <=

    Nuclear Repulsion Energy =              0.0000000000000000
    One-Electron Energy =                -641.1309080009883701
    Two-Electron Energy =                 181.5574059689030264
    Total Energy =                       -459.5735020320853437
 Dipole X            :       -104.4384796           98.6361146           -5.8023650
 Dipole Y            :         -0.0000307            0.0000000           -0.0000307
 Dipole Z            :          0.0001380            0.0000000            0.0001380
 Magnitude           :                                                    5.8023650

    SAPT Results
  --------------------------------------------------------------------------------------------------------
    Electrostatics                -24.91314786 [mEh]     -15.63323630 [kcal/mol]     -65.40946069 [kJ/mol]
      Elst10,r                    -24.56469973 [mEh]     -15.41458180 [kcal/mol]     -64.49461024 [kJ/mol]
      Elst12,r                     -0.34844813 [mEh]      -0.21865450 [kcal/mol]      -0.91485044 [kJ/mol]

    Exchange                       21.72631975 [mEh]      13.63347148 [kcal/mol]      57.04244466 [kJ/mol]
      Exch10                       19.28473082 [mEh]      12.10135129 [kcal/mol]      50.63205380 [kJ/mol]
      Exch10(S^2)                  19.06330451 [mEh]      11.96240418 [kcal/mol]      50.05069910 [kJ/mol]
      Exch11(S^2)                   0.67243743 [mEh]       0.42196086 [kcal/mol]       1.76548424 [kJ/mol]
      Exch12(S^2)                   1.76915150 [mEh]       1.11015932 [kcal/mol]       4.64490661 [kJ/mol]

    Induction                      -7.83550616 [mEh]      -4.91685435 [kcal/mol]     -20.57211859 [kJ/mol]
      Ind20,r                     -15.79117267 [mEh]      -9.90911045 [kcal/mol]     -41.45971814 [kJ/mol]
      Ind22                        -2.25641582 [mEh]      -1.41592230 [kcal/mol]      -5.92421892 [kJ/mol]
      Exch-Ind20,r                 10.78695253 [mEh]       6.76891490 [kcal/mol]      28.32113996 [kJ/mol]
      Exch-Ind22                    1.54135800 [mEh]       0.96721675 [kcal/mol]       4.04683487 [kJ/mol]
      delta HF,r (2)               -2.11622819 [mEh]      -1.32795324 [kcal/mol]      -5.55615636 [kJ/mol]

    Dispersion                     -6.59550115 [mEh]      -4.13873946 [kcal/mol]     -17.31648588 [kJ/mol]
      Disp20                       -7.66717104 [mEh]      -4.81122247 [kcal/mol]     -20.13015480 [kJ/mol]
      Disp21                        0.45200630 [mEh]       0.28363824 [kcal/mol]       1.18674238 [kJ/mol]
      Disp22 (SDQ)                 -0.02858519 [mEh]      -0.01793748 [kcal/mol]      -0.07505040 [kJ/mol]
      Disp22 (T)                   -1.19870668 [mEh]      -0.75219980 [kcal/mol]      -3.14720396 [kJ/mol]
      Est. Disp22 (T)              -1.37824782 [mEh]      -0.86486357 [kcal/mol]      -3.61858916 [kJ/mol]
      Exch-Disp20                   2.02649661 [mEh]       1.27164582 [kcal/mol]       5.32056610 [kJ/mol]

  Total HF                        -12.40041724 [mEh]      -7.78137930 [kcal/mol]     -32.55729099 [kJ/mol]
  Total SAPT0                     -18.04109168 [mEh]     -11.32095595 [kcal/mol]     -47.36687968 [kJ/mol]
  Total SAPT2                     -16.66300870 [mEh]     -10.45619582 [kcal/mol]     -43.74872331 [kJ/mol]
  Total SAPT2+                    -17.61783541 [mEh]     -11.05535863 [kcal/mol]     -46.25562050 [kJ/mol]

  Special recipe for scaled SAPT0 (see Manual):
    Electrostatics sSAPT0         -24.56469973 [mEh]     -15.41458180 [kcal/mol]     -64.49461024 [kJ/mol]
    Exchange sSAPT0                19.28473082 [mEh]      12.10135129 [kcal/mol]      50.63205380 [kJ/mol]
    Induction sSAPT0               -6.74018385 [mEh]      -4.22952922 [kcal/mol]     -17.69635027 [kJ/mol]
    Dispersion sSAPT0              -5.56923585 [mEh]      -3.49474825 [kcal/mol]     -14.62202670 [kJ/mol]
  Total sSAPT0                    -17.58938860 [mEh]     -11.03750799 [kcal/mol]     -46.18093341 [kJ/mol]
  --------------------------------------------------------------------------------------------------------

*** Psi4 exiting successfully. Buy a developer a beer!
