                               Psi4 1.9 release

  ==> Input File <==

--------------------------------------------------------------------------
MEMORY 60 GB

molecule dimer {
0 1
O      0.000000     0.000000     0.000000
H     -0.276001     0.903506     0.159349
H      0.846611     0.145551    -0.488791
--
-1 1
Cl     3.070352     0.000000     0.000000

units ang
no_reorient
no_com
symmetry c1
}

set {
basis        aug-cc-pVTZ
scf_type     df
}

energy("sapt2+")
--------------------------------------------------------------------------

  //              Dimer HF             //
    Molecular point group: c1
  Charge       = -1
  Multiplicity = 1
  Basis Set: AUG-CC-PVTZ
    Blend: AUG-CC-PVTZ
  Basis Set: (AUG-CC-PVTZ AUX)
    Blend: AUG-CC-PVTZ-JKFIT
  @DF-RHF Final Energy:  -535.64159657563880
    Total Energy =                       -535.6415965756389141
 Dipole X            :       -104.7571112           99.7144112           -5.0427000
 Dipole Y            :         -1.3844294            1.9824304            0.5980010
 Dipole Z            :          0.4963455           -0.6225552           -0.1262096
 Magnitude           :                                                    5.0796021
  //            Monomer A HF           //
    Molecular point group: c1
  Multiplicity = 1
  Basis Set: AUG-CC-PVTZ
    Blend: AUG-CC-PVTZ
  Basis Set: (AUG-CC-PVTZ AUX)
    Blend: AUG-CC-PVTZ-JKFIT
  @DF-RHF Final Energy:   -76.05823980417067
    Total Energy =                        -76.0582398041706682
  //            Monomer B HF           //
    Molecular point group: c1

    Geometry (in Angstrom), charge = -1, multiplicity = 1:

       Center              X                  Y                   Z               Mass
    ------------   -----------------  -----------------  -----------------  -----------------
      Gh(O)           0.000000000000     0.000000000000     0.000000000000    15.994914619570
      Gh(H)          -0.276001000000     0.903506000000     0.159349000000     1.007825032230
      Gh(H)           0.846611000000     0.145551000000    -0.488791000000     1.007825032230
         CL           3.070352000000     0.000000000000     0.000000000000    34.968852682000

  Charge       = -1
  Multiplicity = 1
  Basis Set: AUG-CC-PVTZ
    Blend: AUG-CC-PVTZ
  Basis Set: (AUG-CC-PVTZ AUX)
    Blend: AUG-CC-PVTZ-JKFIT

    Orbital Energies [Eh]
    ---------------------

    Doubly Occupied:

       1A   -104.506239     2A    -10.229807     3A     -7.695860
       4A     -7.695858     5A     -7.695826     6A     -0.733502
       7A     -0.150337     8A     -0.150329     9A     -0.150328

  @DF-RHF Final Energy:  -459.57350255338019

   => Energetics <=

    Nuclear Repulsion Energy =              0.0000000000000000
    One-Electron Energy =                -641.1308320519074186
    Two-Electron Energy =                 181.5573294985271957
    Total Energy =                       -459.5735025533801945
 Dipole X            :       -104.4385410           98.6361146           -5.8024264
 Dipole Y            :         -0.0001509            0.0000000           -0.0001509
 Dipole Z            :          0.0000309            0.0000000            0.0000309
 Magnitude           :                                                    5.8024264

    SAPT Results
  --------------------------------------------------------------------------------------------------------
    Electrostatics                -21.65950989 [mEh]     -13.59154765 [kcal/mol]     -56.86703538 [kJ/mol]
      Elst10,r                    -21.02896916 [mEh]     -13.19587737 [kcal/mol]     -55.21155092 [kJ/mol]
      Elst12,r                     -0.63054073 [mEh]      -0.39567028 [kcal/mol]      -1.65548446 [kJ/mol]

    Exchange                       21.78545342 [mEh]      13.67057841 [kcal/mol]      57.19770008 [kJ/mol]
      Exch10                       19.54569872 [mEh]      12.26511112 [kcal/mol]      51.31722493 [kJ/mol]
      Exch10(S^2)                  19.30941207 [mEh]      12.11683900 [kcal/mol]      50.69685439 [kJ/mol]
      Exch11(S^2)                   0.58999110 [mEh]       0.37022501 [kcal/mol]       1.54902143 [kJ/mol]
      Exch12(S^2)                   1.64976360 [mEh]       1.03524229 [kcal/mol]       4.33145372 [kJ/mol]

    Induction                      -9.08950808 [mEh]      -5.70375243 [kcal/mol]     -23.86450017 [kJ/mol]
      Ind20,r                     -15.99867905 [mEh]     -10.03932267 [kcal/mol]     -42.00452605 [kJ/mol]
      Ind22                        -2.04515155 [mEh]      -1.28335198 [kcal/mol]      -5.36954467 [kJ/mol]
      Exch-Ind20,r                 10.37757110 [mEh]       6.51202418 [kcal/mol]      27.24630918 [kJ/mol]
      Exch-Ind22                    1.32659113 [mEh]       0.83244850 [kcal/mol]       3.48296452 [kJ/mol]
      delta HF,r (2)               -2.74983971 [mEh]      -1.72555047 [kcal/mol]      -7.21970316 [kJ/mol]

    Dispersion                     -6.46752652 [mEh]      -4.05843416 [kcal/mol]     -16.98048855 [kJ/mol]
      Disp20                       -7.58730187 [mEh]      -4.76110381 [kcal/mol]     -19.92045833 [kJ/mol]
      Disp21                        0.46826608 [mEh]       0.29384140 [kcal/mol]       1.22943244 [kJ/mol]
      Disp22 (SDQ)                  0.02361284 [mEh]       0.01481728 [kcal/mol]       0.06199551 [kJ/mol]
      Disp22 (T)                   -1.16377477 [mEh]      -0.73027969 [kcal/mol]      -3.05549023 [kJ/mol]
      Est. Disp22 (T)              -1.33495939 [mEh]      -0.83769966 [kcal/mol]      -3.50493539 [kJ/mol]
      Exch-Disp20                   1.96285581 [mEh]       1.23171062 [kcal/mol]       5.15347723 [kJ/mol]

  Total HF                         -9.85421809 [mEh]      -6.18361521 [kcal/mol]     -25.87224603 [kJ/mol]
  Total SAPT0                     -15.47866415 [mEh]      -9.71300840 [kcal/mol]     -40.63922713 [kJ/mol]
  Total SAPT2                     -14.58801061 [mEh]      -9.15411486 [kcal/mol]     -38.30081658 [kJ/mol]
  Total SAPT2+                    -15.43109107 [mEh]      -9.68315584 [kcal/mol]     -40.51432402 [kJ/mol]

  Special recipe for scaled SAPT0 (see Manual):
    Electrostatics sSAPT0         -21.02896916 [mEh]     -13.19587737 [kcal/mol]     -55.21155092 [kJ/mol]
    Exchange sSAPT0                19.54569872 [mEh]      12.26511112 [kcal/mol]      51.31722493 [kJ/mol]
    Induction sSAPT0               -7.98530000 [mEh]      -5.01085140 [kcal/mol]     -20.96540227 [kJ/mol]
    Dispersion sSAPT0              -5.55150310 [mEh]      -3.48362079 [kcal/mol]     -14.57546939 [kJ/mol]
  Total sSAPT0                    -15.02007355 [mEh]      -9.42523845 [kcal/mol]     -39.43519766 [kJ/mol]
  --------------------------------------------------------------------------------------------------------

*** Psi4 exiting successfully. Buy a developer a beer!
