                               Psi4 1.9 release

  ==> Input File <==

--------------------------------------------------------------------------
MEMORY 60 GB

molecule dimer {
0 1
O      0.000000     0.000000     0.000000
H     -0.469111     0.790235     0.270842
H      0.785139     0.393609    -0.453300
--
-1 1
Cl     3.070352     0.000000     0.000000

units ang
no_reorient
no_com
symmetry c1
}

set {
basis        aug-cc-pVTZ
scf_type     df
}

energy("sapt2+")
--------------------------------------------------------------------------

  //              Dimer HF             //
    Molecular point group: c1
  Charge       = -1
  Multiplicity = 1
  Basis Set: AUG-CC-PVTZ
    Blend: AUG-CC-PVTZ
  Basis Set: (AUG-CC-PVTZ AUX)
    Blend: AUG-CC-PVTZ-JKFIT
  @DF-RHF Final Energy:  -535.63754805546228
    Total Energy =                       -535.6375480554622754
 Dipole X            :       -104.4981660           99.2333210           -5.2648450
 Dipole Y            :         -1.5776397            2.2371409            0.6595013
 Dipole Z            :          0.2983798           -0.3447956           -0.0464158
 Magnitude           :                                                    5.3061935
  //            Monomer A HF           //
    Molecular point group: c1
  Multiplicity = 1
  Basis Set: AUG-CC-PVTZ
    Blend: AUG-CC-PVTZ
  Basis Set: (AUG-CC-PVTZ AUX)
    Blend: AUG-CC-PVTZ-JKFIT
  @DF-RHF Final Energy:   -76.05823285799703
    Total Energy =                        -76.0582328579970124
  //            Monomer B HF           //
    Molecular point group: c1

    Geometry (in Angstrom), charge = -1, multiplicity = 1:

       Center              X                  Y                   Z               Mass
    ------------   -----------------  -----------------  -----------------  -----------------
      Gh(O)           0.000000000000     0.000000000000     0.000000000000    15.994914619570
      Gh(H)          -0.469111000000     0.790235000000     0.270842000000     1.007825032230
      Gh(H)           0.785139000000     0.393609000000    -0.453300000000     1.007825032230
         CL           3.070352000000     0.000000000000     0.000000000000    34.968852682000

  Charge       = -1
  Multiplicity = 1
  Basis Set: AUG-CC-PVTZ
    Blend: AUG-CC-PVTZ
  Basis Set: (AUG-CC-PVTZ AUX)
    Blend: AUG-CC-PVTZ-JKFIT

    Orbital Energies [Eh]
    ---------------------

    Doubly Occupied:

       1A   -104.506216     2A    -10.229801     3A     -7.695852
       4A     -7.695850     5A     -7.695821     6A     -0.733503
       7A     -0.150338     8A     -0.150329     9A     -0.150327

  @DF-RHF Final Energy:  -459.57350112962160

   => Energetics <=

    Nuclear Repulsion Energy =              0.0000000000000000
    One-Electron Energy =                -641.1309286327461905
    Two-Electron Energy =                 181.5574275031245861
    Total Energy =                       -459.5735011296216044
 Dipole X            :       -104.4384140           98.6361146           -5.8022994
 Dipole Y            :         -0.0001364            0.0000000           -0.0001364
 Dipole Z            :         -0.0000114            0.0000000           -0.0000114
 Magnitude           :                                                    5.8022994

    SAPT Results
  --------------------------------------------------------------------------------------------------------
    Electrostatics                -16.67787471 [mEh]     -10.46552438 [kcal/mol]     -43.78775402 [kJ/mol]
      Elst10,r                    -15.79117000 [mEh]      -9.90910878 [kcal/mol]     -41.45971111 [kJ/mol]
      Elst12,r                     -0.88670471 [mEh]      -0.55641561 [kcal/mol]      -2.32804290 [kJ/mol]

    Exchange                       19.09391439 [mEh]      11.98161217 [kcal/mol]      50.13106532 [kJ/mol]
      Exch10                       17.14679114 [mEh]      10.75977389 [kcal/mol]      45.01889394 [kJ/mol]
      Exch10(S^2)                  16.97025805 [mEh]      10.64899770 [kcal/mol]      44.55540638 [kJ/mol]
      Exch11(S^2)                   0.43318936 [mEh]       0.27183043 [kcal/mol]       1.13733851 [kJ/mol]
      Exch12(S^2)                   1.51393388 [mEh]       0.95000785 [kcal/mol]       3.97483286 [kJ/mol]

    Induction                      -7.79880715 [mEh]      -4.89382537 [kcal/mol]     -20.47576535 [kJ/mol]
      Ind20,r                     -14.40357091 [mEh]      -9.03837720 [kcal/mol]     -37.81657022 [kJ/mol]
      Ind22                        -1.82909873 [mEh]      -1.14777678 [kcal/mol]      -4.80229807 [kJ/mol]
      Exch-Ind20,r                  9.44946544 [mEh]       5.92962908 [kcal/mol]      24.80956809 [kJ/mol]
      Exch-Ind22                    1.19998057 [mEh]       0.75299918 [kcal/mol]       3.15054856 [kJ/mol]
      delta HF,r (2)               -2.21558351 [mEh]      -1.39029964 [kcal/mol]      -5.81701371 [kJ/mol]

    Dispersion                     -5.90449943 [mEh]      -3.70512933 [kcal/mol]     -15.50226112 [kJ/mol]
      Disp20                       -6.95690200 [mEh]      -4.36552191 [kcal/mol]     -18.26534367 [kJ/mol]
      Disp21                        0.45133109 [mEh]       0.28321454 [kcal/mol]       1.18496962 [kJ/mol]
      Disp22 (SDQ)                  0.02633453 [mEh]       0.01652517 [kcal/mol]       0.06914130 [kJ/mol]
      Disp22 (T)                   -1.06086262 [mEh]      -0.66570135 [kcal/mol]      -2.78529443 [kJ/mol]
      Est. Disp22 (T)              -1.21813682 [mEh]      -0.76439239 [kcal/mol]      -3.19821778 [kJ/mol]
      Exch-Disp20                   1.79287376 [mEh]       1.12504527 [kcal/mol]       4.70718941 [kJ/mol]

  Total HF                         -5.81406784 [mEh]      -3.64838265 [kcal/mol]     -15.26483302 [kJ/mol]
  Total SAPT0                     -10.97809608 [mEh]      -6.88885929 [kcal/mol]     -28.82298728 [kJ/mol]
  Total SAPT2                     -10.54679571 [mEh]      -6.61821422 [kcal/mol]     -27.69060832 [kJ/mol]
  Total SAPT2+                    -11.28726690 [mEh]      -7.08286692 [kcal/mol]     -29.63471517 [kJ/mol]

  Special recipe for scaled SAPT0 (see Manual):
    Electrostatics sSAPT0         -15.79117000 [mEh]      -9.90910878 [kcal/mol]     -41.45971111 [kJ/mol]
    Exchange sSAPT0                17.14679114 [mEh]      10.75977389 [kcal/mol]      45.01889394 [kJ/mol]
    Induction sSAPT0               -6.87171656 [mEh]      -4.31206724 [kcal/mol]     -18.04168934 [kJ/mol]
    Dispersion sSAPT0              -5.10749308 [mEh]      -3.20500030 [kcal/mol]     -13.40972124 [kJ/mol]
  Total sSAPT0                    -10.62358850 [mEh]      -6.66640243 [kcal/mol]     -27.89222776 [kJ/mol]
  --------------------------------------------------------------------------------------------------------

*** Psi4 exiting successfully. Buy a developer a beer!
