                               Psi4 1.9 release

  ==> Input File <==

--------------------------------------------------------------------------
MEMORY 60 GB

molecule dimer {
0 1
O      0.000000     0.000000     0.000000
H     -0.064081     0.955205     0.036997
H      0.850388    -0.112425    -0.490971
--
-1 1
Cl     3.070352     0.000000     0.000000

units ang
no_reorient
no_com
symmetry c1
}

set {
basis        aug-cc-pVTZ
scf_type     df
}

energy("sapt2+")
--------------------------------------------------------------------------

  //              Dimer HF             //
    Molecular point group: c1
  Charge       = -1
  Multiplicity = 1
  Basis Set: AUG-CC-PVTZ
    Blend: AUG-CC-PVTZ
  Basis Set: (AUG-CC-PVTZ AUX)
    Blend: AUG-CC-PVTZ-JKFIT
  @DF-RHF Final Energy:  -535.64374081413246
    Total Energy =                       -535.6437408141324568
 Dipole X            :       -105.0121412          100.1220195           -4.8901217
 Dipole Y            :         -1.0955831            1.5926234            0.4970403
 Dipole Z            :          0.6575648           -0.8578865           -0.2003217
 Magnitude           :                                                    4.9193971
  //            Monomer A HF           //
    Molecular point group: c1
  Multiplicity = 1
  Basis Set: AUG-CC-PVTZ
    Blend: AUG-CC-PVTZ
  Basis Set: (AUG-CC-PVTZ AUX)
    Blend: AUG-CC-PVTZ-JKFIT
  @DF-RHF Final Energy:   -76.05824002690113
    Total Energy =                        -76.0582400269011316
  //            Monomer B HF           //
    Molecular point group: c1

    Geometry (in Angstrom), charge = -1, multiplicity = 1:

       Center              X                  Y                   Z               Mass
    ------------   -----------------  -----------------  -----------------  -----------------
      Gh(O)           0.000000000000     0.000000000000     0.000000000000    15.994914619570
      Gh(H)          -0.064081000000     0.955205000000     0.036997000000     1.007825032230
      Gh(H)           0.850388000000    -0.112425000000    -0.490971000000     1.007825032230
         CL           3.070352000000     0.000000000000     0.000000000000    34.968852682000

  Charge       = -1
  Multiplicity = 1
  Basis Set: AUG-CC-PVTZ
    Blend: AUG-CC-PVTZ
  Basis Set: (AUG-CC-PVTZ AUX)
    Blend: AUG-CC-PVTZ-JKFIT

    Orbital Energies [Eh]
    ---------------------

    Doubly Occupied:

       1A   -104.506237     2A    -10.229806     3A     -7.695860
       4A     -7.695857     5A     -7.695824     6A     -0.733502
       7A     -0.150337     8A     -0.150328     9A     -0.150328

  @DF-RHF Final Energy:  -459.57350273127798

   => Energetics <=

    Nuclear Repulsion Energy =              0.0000000000000000
    One-Electron Energy =                -641.1308457045651039
    Two-Electron Energy =                 181.5573429732871205
    Total Energy =                       -459.5735027312779835
 Dipole X            :       -104.4385810           98.6361146           -5.8024664
 Dipole Y            :         -0.0000876            0.0000000           -0.0000876
 Dipole Z            :          0.0001000            0.0000000            0.0001000
 Magnitude           :                                                    5.8024664

    SAPT Results
  --------------------------------------------------------------------------------------------------------
    Electrostatics                -24.38845551 [mEh]     -15.30398689 [kcal/mol]     -64.03188113 [kJ/mol]
      Elst10,r                    -23.93323055 [mEh]     -15.01832891 [kcal/mol]     -62.83668814 [kJ/mol]
      Elst12,r                     -0.45522497 [mEh]      -0.28565798 [kcal/mol]      -1.19519299 [kJ/mol]

    Exchange                       22.70998278 [mEh]      14.25072935 [kcal/mol]      59.62505159 [kJ/mol]
      Exch10                       20.28809689 [mEh]      12.73097301 [kcal/mol]      53.26639105 [kJ/mol]
      Exch10(S^2)                  20.03394105 [mEh]      12.57148780 [kcal/mol]      52.59910497 [kJ/mol]
      Exch11(S^2)                   0.67509453 [mEh]       0.42362821 [kcal/mol]       1.77246045 [kJ/mol]
      Exch12(S^2)                   1.74679136 [mEh]       1.09612813 [kcal/mol]       4.58620008 [kJ/mol]

    Induction                      -9.10606160 [mEh]      -5.71413993 [kcal/mol]     -23.90796145 [kJ/mol]
      Ind20,r                     -16.48420506 [mEh]     -10.34399484 [kcal/mol]     -43.27927443 [kJ/mol]
      Ind22                        -2.20309560 [mEh]      -1.38246336 [kcal/mol]      -5.78422669 [kJ/mol]
      Exch-Ind20,r                 10.84899670 [mEh]       6.80784821 [kcal/mol]      28.48403691 [kJ/mol]
      Exch-Ind22                    1.44995629 [mEh]       0.90986131 [kcal/mol]       3.80685972 [kJ/mol]
      delta HF,r (2)               -2.71771394 [mEh]      -1.70539124 [kcal/mol]      -7.13535696 [kJ/mol]

    Dispersion                     -6.70484149 [mEh]      -4.20735156 [kcal/mol]     -17.60355892 [kJ/mol]
      Disp20                       -7.83037435 [mEh]      -4.91363409 [kcal/mol]     -20.55864502 [kJ/mol]
      Disp21                        0.47022790 [mEh]       0.29507246 [kcal/mol]       1.23458319 [kJ/mol]
      Disp22 (SDQ)                  0.00218422 [mEh]       0.00137062 [kcal/mol]       0.00573467 [kJ/mol]
      Disp22 (T)                   -1.21090150 [mEh]      -0.75985216 [kcal/mol]      -3.17922144 [kJ/mol]
      Est. Disp22 (T)              -1.39066483 [mEh]      -0.87265536 [kcal/mol]      -3.65119001 [kJ/mol]
      Exch-Disp20                   2.04378556 [mEh]       1.28249480 [kcal/mol]       5.36595825 [kJ/mol]

  Total HF                        -11.99805595 [mEh]      -7.52889378 [kcal/mol]     -31.50089157 [kJ/mol]
  Total SAPT0                     -17.78464474 [mEh]     -11.16003306 [kcal/mol]     -46.69357834 [kJ/mol]
  Total SAPT2                     -16.57112312 [mEh]     -10.39853675 [kcal/mol]     -43.50747776 [kJ/mol]
  Total SAPT2+                    -17.48937583 [mEh]     -10.97474902 [kcal/mol]     -45.91834991 [kJ/mol]

  Special recipe for scaled SAPT0 (see Manual):
    Electrostatics sSAPT0         -23.93323055 [mEh]     -15.01832891 [kcal/mol]     -62.83668814 [kJ/mol]
    Exchange sSAPT0                20.28809689 [mEh]      12.73097301 [kcal/mol]      53.26639105 [kJ/mol]
    Induction sSAPT0               -7.93476232 [mEh]      -4.97913853 [kcal/mol]     -20.83271560 [kJ/mol]
    Dispersion sSAPT0              -5.70781382 [mEh]      -3.58170725 [kcal/mol]     -14.98586313 [kJ/mol]
  Total sSAPT0                    -17.28770980 [mEh]     -10.84820168 [kcal/mol]     -45.38887581 [kJ/mol]
  --------------------------------------------------------------------------------------------------------

*** Psi4 exiting successfully. Buy a developer a beer!
