                               Psi4 1.9 release

  ==> Input File <==

--------------------------------------------------------------------------
MEMORY 60 GB

molecule dimer {
0 1
O      0.000000     0.000000     0.000000
H      0.539629     0.727754    -0.311555
H      0.532469    -0.773835    -0.307421
--
-1 1
Cl     3.070352     0.000000     0.000000

units ang
no_reorient
no_com
symmetry c1
}

set {
basis        aug-cc-pVTZ
scf_type     df
}

energy("sapt2+")
--------------------------------------------------------------------------

  //              Dimer HF             //
    Molecular point group: c1
  Charge       = -1
  Multiplicity = 1
  Basis Set: AUG-CC-PVTZ
    Blend: AUG-CC-PVTZ
  Basis Set: (AUG-CC-PVTZ AUX)
    Blend: AUG-CC-PVTZ-JKFIT
  @DF-RHF Final Energy:  -535.64331003583118
    Total Energy =                       -535.6433100358311776
 Dipole X            :       -105.4547320          100.6620862           -4.7926458
 Dipole Y            :          0.0632533           -0.0870805           -0.0238271
 Dipole Z            :          0.8519112           -1.1696951           -0.3177839
 Magnitude           :                                                    4.8032289
  //            Monomer A HF           //
    Molecular point group: c1
  Multiplicity = 1
  Basis Set: AUG-CC-PVTZ
    Blend: AUG-CC-PVTZ
  Basis Set: (AUG-CC-PVTZ AUX)
    Blend: AUG-CC-PVTZ-JKFIT
  @DF-RHF Final Energy:   -76.05822252480206
    Total Energy =                        -76.0582225248020620
  //            Monomer B HF           //
    Molecular point group: c1

    Geometry (in Angstrom), charge = -1, multiplicity = 1:

       Center              X                  Y                   Z               Mass
    ------------   -----------------  -----------------  -----------------  -----------------
      Gh(O)           0.000000000000     0.000000000000     0.000000000000    15.994914619570
      Gh(H)           0.539629000000     0.727754000000    -0.311555000000     1.007825032230
      Gh(H)           0.532469000000    -0.773835000000    -0.307421000000     1.007825032230
         CL           3.070352000000     0.000000000000     0.000000000000    34.968852682000

  Charge       = -1
  Multiplicity = 1
  Basis Set: AUG-CC-PVTZ
    Blend: AUG-CC-PVTZ
  Basis Set: (AUG-CC-PVTZ AUX)
    Blend: AUG-CC-PVTZ-JKFIT

    Orbital Energies [Eh]
    ---------------------

    Doubly Occupied:

       1A   -104.506207     2A    -10.229799     3A     -7.695848
       4A     -7.695844     5A     -7.695824     6A     -0.733502
       7A     -0.150337     8A     -0.150327     9A     -0.150326

  @DF-RHF Final Energy:  -459.57349809633740

   => Energetics <=

    Nuclear Repulsion Energy =              0.0000000000000000
    One-Electron Energy =                -641.1309673774769635
    Two-Electron Energy =                 181.5574692811395607
    Total Energy =                       -459.5734980963374028
 Dipole X            :       -104.4381223           98.6361146           -5.8020077
 Dipole Y            :          0.0000100            0.0000000            0.0000100
 Dipole Z            :          0.0001862            0.0000000            0.0001862
 Magnitude           :                                                    5.8020077

    SAPT Results
  --------------------------------------------------------------------------------------------------------
    Electrostatics                -23.76947263 [mEh]     -14.91556926 [kcal/mol]     -62.40674178 [kJ/mol]
      Elst10,r                    -23.50179519 [mEh]     -14.74759913 [kcal/mol]     -61.70395477 [kJ/mol]
      Elst12,r                     -0.26767743 [mEh]      -0.16797013 [kcal/mol]      -0.70278701 [kJ/mol]

    Exchange                       19.25905451 [mEh]      12.08523916 [kcal/mol]      50.56464065 [kJ/mol]
      Exch10                       16.93917769 [mEh]      10.62949448 [kcal/mol]      44.47380490 [kJ/mol]
      Exch10(S^2)                  16.78415623 [mEh]      10.53221705 [kcal/mol]      44.06679612 [kJ/mol]
      Exch11(S^2)                   0.58775422 [mEh]       0.36882134 [kcal/mol]       1.54314849 [kJ/mol]
      Exch12(S^2)                   1.73212260 [mEh]       1.08692334 [kcal/mol]       4.54768727 [kJ/mol]

    Induction                      -5.63706748 [mEh]      -3.53731325 [kcal/mol]     -14.80011864 [kJ/mol]
      Ind20,r                     -14.20985160 [mEh]      -8.91681650 [kcal/mol]     -37.30796023 [kJ/mol]
      Ind22                        -2.22189042 [mEh]      -1.39425729 [kcal/mol]      -5.83357249 [kJ/mol]
      Exch-Ind20,r                 10.30693621 [mEh]       6.46770012 [kcal/mol]      27.06085729 [kJ/mol]
      Exch-Ind22                    1.61162012 [mEh]       1.01130690 [kcal/mol]       4.23130805 [kJ/mol]
      delta HF,r (2)               -1.12388180 [mEh]      -0.70524648 [kcal/mol]      -2.95075125 [kJ/mol]

    Dispersion                     -6.20467151 [mEh]      -3.89349015 [kcal/mol]     -16.29036280 [kJ/mol]
      Disp20                       -7.16783529 [mEh]      -4.49788455 [kcal/mol]     -18.81914897 [kJ/mol]
      Disp21                        0.41654846 [mEh]       0.26138810 [kcal/mol]       1.09364783 [kJ/mol]
      Disp22 (SDQ)                 -0.06542051 [mEh]      -0.04105199 [kcal/mol]      -0.17176153 [kJ/mol]
      Disp22 (T)                   -1.12523195 [mEh]      -0.70609371 [kcal/mol]      -2.95429607 [kJ/mol]
      Est. Disp22 (T)              -1.31198362 [mEh]      -0.82328215 [kcal/mol]      -3.44461252 [kJ/mol]
      Exch-Disp20                   1.92401946 [mEh]       1.20734044 [kcal/mol]       5.05151239 [kJ/mol]

  Total HF                        -11.58941469 [mEh]      -7.27246751 [kcal/mol]     -30.42800408 [kJ/mol]
  Total SAPT0                     -16.83323053 [mEh]     -10.56301163 [kcal/mol]     -44.19564066 [kJ/mol]
  Total SAPT2                     -15.39130144 [mEh]      -9.65818746 [kcal/mol]     -40.40985635 [kJ/mol]
  Total SAPT2+                    -16.35215711 [mEh]     -10.26113350 [kcal/mol]     -42.93258257 [kJ/mol]

  Special recipe for scaled SAPT0 (see Manual):
    Electrostatics sSAPT0         -23.50179519 [mEh]     -14.74759913 [kcal/mol]     -61.70395477 [kJ/mol]
    Exchange sSAPT0                16.93917769 [mEh]      10.62949448 [kcal/mol]      44.47380490 [kJ/mol]
    Induction sSAPT0               -4.73856121 [mEh]      -2.97349205 [kcal/mol]     -12.44109075 [kJ/mol]
    Dispersion sSAPT0              -5.19001016 [mEh]      -3.25678055 [kcal/mol]     -13.62636981 [kJ/mol]
  Total sSAPT0                    -16.49118888 [mEh]     -10.34837725 [kcal/mol]     -43.29761043 [kJ/mol]
  --------------------------------------------------------------------------------------------------------

*** Psi4 exiting successfully. Buy a developer a beer!
