                               Psi4 1.9 release

  ==> Input File <==

--------------------------------------------------------------------------
MEMORY 60 GB

molecule dimer {
0 1
O      0.000000     0.000000     0.000000
H     -0.630253     0.623110     0.363877
H      0.670161     0.614842    -0.386918
--
-1 1
Cl     3.070352     0.000000     0.000000

units ang
no_reorient
no_com
symmetry c1
}

set {
basis        aug-cc-pVTZ
scf_type     df
}

energy("sapt2+")
--------------------------------------------------------------------------

  //              Dimer HF             //
    Molecular point group: c1
  Charge       = -1
  Multiplicity = 1
  Basis Set: AUG-CC-PVTZ
    Blend: AUG-CC-PVTZ
  Basis Set: (AUG-CC-PVTZ AUX)
    Blend: AUG-CC-PVTZ-JKFIT
  @DF-RHF Final Energy:  -535.63224023676003
    Total Energy =                       -535.6322402367600262
 Dipole X            :       -104.2355952           98.7115298           -5.5240654
 Dipole Y            :         -1.6573231            2.3393902            0.6820671
 Dipole Z            :          0.0799553           -0.0435412            0.0364141
 Magnitude           :                                                    5.5661333
  //            Monomer A HF           //
    Molecular point group: c1
  Multiplicity = 1
  Basis Set: AUG-CC-PVTZ
    Blend: AUG-CC-PVTZ
  Basis Set: (AUG-CC-PVTZ AUX)
    Blend: AUG-CC-PVTZ-JKFIT
  @DF-RHF Final Energy:   -76.05822496169243
    Total Energy =                        -76.0582249616924457
  //            Monomer B HF           //
    Molecular point group: c1

    Geometry (in Angstrom), charge = -1, multiplicity = 1:

       Center              X                  Y                   Z               Mass
    ------------   -----------------  -----------------  -----------------  -----------------
      Gh(O)           0.000000000000     0.000000000000     0.000000000000    15.994914619570
      Gh(H)          -0.630253000000     0.623110000000     0.363877000000     1.007825032230
      Gh(H)           0.670161000000     0.614842000000    -0.386918000000     1.007825032230
         CL           3.070352000000     0.000000000000     0.000000000000    34.968852682000

  Charge       = -1
  Multiplicity = 1
  Basis Set: AUG-CC-PVTZ
    Blend: AUG-CC-PVTZ
  Basis Set: (AUG-CC-PVTZ AUX)
    Blend: AUG-CC-PVTZ-JKFIT

    Orbital Energies [Eh]
    ---------------------

    Doubly Occupied:

       1A   -104.506181     2A    -10.229792     3A     -7.695840
       4A     -7.695839     5A     -7.695815     6A     -0.733503
       7A     -0.150338     8A     -0.150328     9A     -0.150327

  @DF-RHF Final Energy:  -459.57349819106423

   => Energetics <=

    Nuclear Repulsion Energy =              0.0000000000000000
    One-Electron Energy =                -641.1310693207766462
    Two-Electron Energy =                 181.5575711297124428
    Total Energy =                       -459.5734981910642318
 Dipole X            :       -104.4382116           98.6361146           -5.8020970
 Dipole Y            :         -0.0001068            0.0000000           -0.0001068
 Dipole Z            :         -0.0000219            0.0000000           -0.0000219
 Magnitude           :                                                    5.8020970

    SAPT Results
  --------------------------------------------------------------------------------------------------------
    Electrostatics                -10.33769781 [mEh]      -6.48700331 [kcal/mol]     -27.14162186 [kJ/mol]
      Elst10,r                     -9.14052952 [mEh]      -5.73576887 [kcal/mol]     -23.99845695 [kJ/mol]
      Elst12,r                     -1.19716829 [mEh]      -0.75123444 [kcal/mol]      -3.14316490 [kJ/mol]

    Exchange                       15.90547925 [mEh]       9.98083891 [kcal/mol]      41.75983001 [kJ/mol]
      Exch10                       14.24229727 [mEh]       8.93717646 [kcal/mol]      37.39314632 [kJ/mol]
      Exch10(S^2)                  14.12650954 [mEh]       8.86451857 [kcal/mol]      37.08914568 [kJ/mol]
      Exch11(S^2)                   0.26242358 [mEh]       0.16467329 [kcal/mol]       0.68899303 [kJ/mol]
      Exch12(S^2)                   1.40075839 [mEh]       0.87898916 [kcal/mol]       3.67769066 [kJ/mol]

    Induction                      -6.15227434 [mEh]      -3.86061044 [kcal/mol]     -16.15279407 [kJ/mol]
      Ind20,r                     -12.47872436 [mEh]      -7.83051776 [kcal/mol]     -32.76288629 [kJ/mol]
      Ind22                        -1.63151187 [mEh]      -1.02378916 [kcal/mol]      -4.28353383 [kJ/mol]
      Exch-Ind20,r                  8.39880702 [mEh]       5.27033098 [kcal/mol]      22.05106480 [kJ/mol]
      Exch-Ind22                    1.09808927 [mEh]       0.68906142 [kcal/mol]       2.88303299 [kJ/mol]
      delta HF,r (2)               -1.53893441 [mEh]      -0.96569592 [kcal/mol]      -4.04047175 [kJ/mol]

    Dispersion                     -5.23401986 [mEh]      -3.28439705 [kcal/mol]     -13.74191725 [kJ/mol]
      Disp20                       -6.18726819 [mEh]      -3.88256941 [kcal/mol]     -16.24467039 [kJ/mol]
      Disp21                        0.43718592 [mEh]       0.27433830 [kcal/mol]       1.14783147 [kJ/mol]
      Disp22 (SDQ)                  0.01214877 [mEh]       0.00762347 [kcal/mol]       0.03189659 [kJ/mol]
      Disp22 (T)                   -0.92592196 [mEh]      -0.58102480 [kcal/mol]      -2.43100778 [kJ/mol]
      Est. Disp22 (T)              -1.08958838 [mEh]      -0.68372703 [kcal/mol]      -2.86071389 [kJ/mol]
      Exch-Disp20                   1.59350202 [mEh]       0.99993761 [kcal/mol]       4.18373898 [kJ/mol]

  Total HF                         -0.51708400 [mEh]      -0.32447511 [kcal/mol]      -1.35760386 [kJ/mol]
  Total SAPT0                      -5.11085017 [mEh]      -3.20710690 [kcal/mol]     -13.41853528 [kJ/mol]
  Total SAPT2                      -5.17825908 [mEh]      -3.24940663 [kcal/mol]     -13.59551734 [kJ/mol]
  Total SAPT2+                     -5.81851277 [mEh]      -3.65117189 [kcal/mol]     -15.27650317 [kJ/mol]

  Special recipe for scaled SAPT0 (see Manual):
    Electrostatics sSAPT0          -9.14052952 [mEh]      -5.73576887 [kcal/mol]     -23.99845695 [kJ/mol]
    Exchange sSAPT0                14.24229727 [mEh]       8.93717646 [kcal/mol]      37.39314632 [kJ/mol]
    Induction sSAPT0               -5.41063227 [mEh]      -3.39522301 [kcal/mol]     -14.20561307 [kJ/mol]
    Dispersion sSAPT0              -4.55426078 [mEh]      -2.85784179 [kcal/mol]     -11.95721003 [kJ/mol]
  Total sSAPT0                     -4.86312531 [mEh]      -3.05165720 [kcal/mol]     -12.76813373 [kJ/mol]
  --------------------------------------------------------------------------------------------------------

*** Psi4 exiting successfully. Buy a developer a beer!
