                               Psi4 1.9 release

  ==> Input File <==

--------------------------------------------------------------------------
MEMORY 60 GB

molecule dimer {
0 1
O      0.000000     0.000000     0.000000
H      0.537329     0.730363    -0.310227
H      0.532024    -0.769465    -0.307164
--
-1 1
Br     3.212066     0.000000     0.000000

units ang
no_reorient
no_com
symmetry c1
}

set {
basis        aug-cc-pVTZ
scf_type     df
}

energy("sapt2+")
--------------------------------------------------------------------------

  //              Dimer HF             //
    Molecular point group: c1
  Charge       = -1
  Multiplicity = 1
  Basis Set: AUG-CC-PVTZ
    Blend: AUG-CC-PVTZ
  Basis Set: (AUG-CC-PVTZ AUX)
    Blend: AUG-CC-PVTZ-JKFIT
  @DF-RHF Final Energy: -2648.60198500616207
    Total Energy =                      -2648.6019850061620673
 Dipole X            :       -219.5444730          214.4681606           -5.0763124
 Dipole Y            :          0.0542931           -0.0738921           -0.0195989
 Dipole Z            :          0.8641841           -1.1666999           -0.3025158
 Magnitude           :                                                    5.0853562
  //            Monomer A HF           //
    Molecular point group: c1
  Multiplicity = 1
  Basis Set: AUG-CC-PVTZ
    Blend: AUG-CC-PVTZ
  Basis Set: (AUG-CC-PVTZ AUX)
    Blend: AUG-CC-PVTZ-JKFIT
  @DF-RHF Final Energy:   -76.05853948244518
    Total Energy =                        -76.0585394824451839
  //            Monomer B HF           //
    Molecular point group: c1

    Geometry (in Angstrom), charge = -1, multiplicity = 1:

       Center              X                  Y                   Z               Mass
    ------------   -----------------  -----------------  -----------------  -----------------
      Gh(O)           0.000000000000     0.000000000000     0.000000000000    15.994914619570
      Gh(H)           0.537329000000     0.730363000000    -0.310227000000     1.007825032230
      Gh(H)           0.532024000000    -0.769465000000    -0.307164000000     1.007825032230
         BR           3.212066000000     0.000000000000     0.000000000000    78.918337600000

  Charge       = -1
  Multiplicity = 1
  Basis Set: AUG-CC-PVTZ
    Blend: AUG-CC-PVTZ
  Basis Set: (AUG-CC-PVTZ AUX)
    Blend: AUG-CC-PVTZ-JKFIT

    Orbital Energies [Eh]
    ---------------------

    Doubly Occupied:

       1A   -489.720622     2A    -64.860638     3A    -58.215119
       4A    -58.215119     5A    -58.215116     6A     -9.532910
       7A     -7.140257     8A     -7.140255     9A     -7.140244
      10A     -2.881928    11A     -2.881928    12A     -2.881926
      13A     -2.881920    14A     -2.881908    15A     -0.685997
      16A     -0.139337    17A     -0.139337    18A     -0.139336

  @DF-RHF Final Energy: -2572.53367845227285

   => Energetics <=

    Nuclear Repulsion Energy =              0.0000000000000000
    One-Electron Energy =               -3593.6795588517088618
    Two-Electron Energy =                1021.1458803994358959
    Total Energy =                      -2572.5336784522728522
 Dipole X            :       -218.5173716          212.4473763           -6.0699953
 Dipole Y            :          0.0000025            0.0000000            0.0000025
 Dipole Z            :          0.0000376            0.0000000            0.0000376
 Magnitude           :                                                    6.0699953

    SAPT Results
  --------------------------------------------------------------------------------------------------------
    Electrostatics                -22.51343558 [mEh]     -14.12739411 [kcal/mol]     -59.10901698 [kJ/mol]
      Elst10,r                    -22.30795691 [mEh]     -13.99845430 [kcal/mol]     -58.56953280 [kJ/mol]
      Elst12,r                     -0.20547867 [mEh]      -0.12893981 [kcal/mol]      -0.53948418 [kJ/mol]

    Exchange                       19.08401115 [mEh]      11.97539779 [kcal/mol]      50.10506436 [kJ/mol]
      Exch10                       16.97056409 [mEh]      10.64918974 [kcal/mol]      44.55620988 [kJ/mol]
      Exch10(S^2)                  16.80433314 [mEh]      10.54487824 [kcal/mol]      44.11977057 [kJ/mol]
      Exch11(S^2)                   0.62904396 [mEh]       0.39473105 [kcal/mol]       1.65155470 [kJ/mol]
      Exch12(S^2)                   1.48440309 [mEh]       0.93147700 [kcal/mol]       3.89729979 [kJ/mol]

    Induction                      -4.94929247 [mEh]      -3.10572791 [kcal/mol]     -12.99436558 [kJ/mol]
      Ind20,r                     -15.31228182 [mEh]      -9.60860191 [kcal/mol]     -40.20239038 [kJ/mol]
      Ind22                        -2.40345586 [mEh]      -1.50819132 [kcal/mol]      -6.31027248 [kJ/mol]
      Exch-Ind20,r                 12.00185131 [mEh]       7.53127540 [kcal/mol]      31.51085628 [kJ/mol]
      Exch-Ind22                    1.88384201 [mEh]       1.18212871 [kcal/mol]       4.94602653 [kJ/mol]
      delta HF,r (2)               -1.11924811 [mEh]      -0.70233879 [kcal/mol]      -2.93858552 [kJ/mol]

    Dispersion                     -6.26986870 [mEh]      -3.93440201 [kcal/mol]     -16.46153800 [kJ/mol]
      Disp20                       -7.33410616 [mEh]      -4.60222110 [kcal/mol]     -19.25569306 [kJ/mol]
      Disp21                        0.46633876 [mEh]       0.29263199 [kcal/mol]       1.22437226 [kJ/mol]
      Disp22 (SDQ)                 -0.06356955 [mEh]      -0.03989050 [kcal/mol]      -0.16690183 [kJ/mol]
      Disp22 (T)                   -1.12442793 [mEh]      -0.70558918 [kcal/mol]      -2.95218512 [kJ/mol]
      Est. Disp22 (T)              -1.31272523 [mEh]      -0.82374752 [kcal/mol]      -3.44655962 [kJ/mol]
      Exch-Disp20                   1.97419348 [mEh]       1.23882511 [kcal/mol]       5.18324426 [kJ/mol]

  Total HF                         -9.76707144 [mEh]      -6.12892986 [kcal/mol]     -25.64344254 [kJ/mol]
  Total SAPT0                     -15.12698413 [mEh]      -9.49232585 [kcal/mol]     -39.71589135 [kJ/mol]
  Total SAPT2                     -13.73862958 [mEh]      -8.62112022 [kcal/mol]     -36.07076700 [kJ/mol]
  Total SAPT2+                    -14.64858560 [mEh]      -9.19212624 [kcal/mol]     -38.45985619 [kJ/mol]

  Special recipe for scaled SAPT0 (see Manual):
    Electrostatics sSAPT0         -22.30795691 [mEh]     -13.99845430 [kcal/mol]     -58.56953280 [kJ/mol]
    Exchange sSAPT0                16.97056409 [mEh]      10.64918974 [kcal/mol]      44.55620988 [kJ/mol]
    Induction sSAPT0               -4.06997142 [mEh]      -2.55394563 [kcal/mol]     -10.68570850 [kJ/mol]
    Dispersion sSAPT0              -5.30074418 [mEh]      -3.32626719 [kcal/mol]     -13.91710191 [kJ/mol]
  Total sSAPT0                    -14.70810842 [mEh]      -9.22947737 [kcal/mol]     -38.61613333 [kJ/mol]
  --------------------------------------------------------------------------------------------------------

*** Psi4 exiting successfully. Buy a developer a beer!
