                               Psi4 1.9 release

  ==> Input File <==

--------------------------------------------------------------------------
MEMORY 60 GB

molecule dimer {
0 1
O      0.000000     0.000000     0.000000
H     -0.632513     0.620454     0.365181
H      0.666376     0.614329    -0.384733
--
-1 1
Br     3.212066     0.000000     0.000000

units ang
no_reorient
no_com
symmetry c1
}

set {
basis        aug-cc-pVTZ
scf_type     df
}

energy("sapt2+")
--------------------------------------------------------------------------

  //              Dimer HF             //
    Molecular point group: c1
  Charge       = -1
  Multiplicity = 1
  Basis Set: AUG-CC-PVTZ
    Blend: AUG-CC-PVTZ
  Basis Set: (AUG-CC-PVTZ AUX)
    Blend: AUG-CC-PVTZ-JKFIT
  @DF-RHF Final Energy: -2648.59168602604223
    Total Energy =                      -2648.5916860260422254
 Dipole X            :       -218.3398878          212.5113681           -5.8285198
 Dipole Y            :         -1.6727107            2.3334017            0.6606909
 Dipole Z            :          0.0852053           -0.0369479            0.0482574
 Magnitude           :                                                    5.8660450
  //            Monomer A HF           //
    Molecular point group: c1
  Multiplicity = 1
  Basis Set: AUG-CC-PVTZ
    Blend: AUG-CC-PVTZ
  Basis Set: (AUG-CC-PVTZ AUX)
    Blend: AUG-CC-PVTZ-JKFIT
  @DF-RHF Final Energy:   -76.05854080542188
    Total Energy =                        -76.0585408054218988
  //            Monomer B HF           //
    Molecular point group: c1

    Geometry (in Angstrom), charge = -1, multiplicity = 1:

       Center              X                  Y                   Z               Mass
    ------------   -----------------  -----------------  -----------------  -----------------
      Gh(O)           0.000000000000     0.000000000000     0.000000000000    15.994914619570
      Gh(H)          -0.632513000000     0.620454000000     0.365181000000     1.007825032230
      Gh(H)           0.666376000000     0.614329000000    -0.384733000000     1.007825032230
         BR           3.212066000000     0.000000000000     0.000000000000    78.918337600000

  Charge       = -1
  Multiplicity = 1
  Basis Set: AUG-CC-PVTZ
    Blend: AUG-CC-PVTZ
  Basis Set: (AUG-CC-PVTZ AUX)
    Blend: AUG-CC-PVTZ-JKFIT

    Orbital Energies [Eh]
    ---------------------

    Doubly Occupied:

       1A   -489.720615     2A    -64.860633     3A    -58.215113
       4A    -58.215113     5A    -58.215110     6A     -9.532908
       7A     -7.140255     8A     -7.140254     9A     -7.140240
      10A     -2.881925    11A     -2.881925    12A     -2.881923
      13A     -2.881921    14A     -2.881906    15A     -0.685998
      16A     -0.139337    17A     -0.139337    18A     -0.139337

  @DF-RHF Final Energy: -2572.53367789484628

   => Energetics <=

    Nuclear Repulsion Energy =              0.0000000000000000
    One-Electron Energy =               -3593.6796444615711152
    Two-Electron Energy =                1021.1459665667248373
    Total Energy =                      -2572.5336778948462779
 Dipole X            :       -218.5173051          212.4473763           -6.0699288
 Dipole Y            :          0.0000792            0.0000000            0.0000792
 Dipole Z            :         -0.0000844            0.0000000           -0.0000844
 Magnitude           :                                                    6.0699288

    SAPT Results
  --------------------------------------------------------------------------------------------------------
    Electrostatics                 -9.71571906 [mEh]      -6.09670576 [kcal/mol]     -25.50861689 [kJ/mol]
      Elst10,r                     -8.69722532 [mEh]      -5.45759128 [kcal/mol]     -22.83456193 [kJ/mol]
      Elst12,r                     -1.01849375 [mEh]      -0.63911447 [kcal/mol]      -2.67405496 [kJ/mol]

    Exchange                       15.73764209 [mEh]       9.87551950 [kcal/mol]      41.31917361 [kJ/mol]
      Exch10                       14.23115209 [mEh]       8.93018276 [kcal/mol]      37.36388467 [kJ/mol]
      Exch10(S^2)                  14.10973925 [mEh]       8.85399505 [kcal/mol]      37.04511530 [kJ/mol]
      Exch11(S^2)                   0.29412543 [mEh]       0.18456649 [kcal/mol]       0.77222620 [kJ/mol]
      Exch12(S^2)                   1.21236457 [mEh]       0.76077025 [kcal/mol]       3.18306274 [kJ/mol]

    Induction                      -5.42937364 [mEh]      -3.40698339 [kcal/mol]     -14.25481852 [kJ/mol]
      Ind20,r                     -13.02797102 [mEh]      -8.17517524 [kcal/mol]     -34.20493320 [kJ/mol]
      Ind22                        -1.61199741 [mEh]      -1.01154364 [kcal/mol]      -4.23229861 [kJ/mol]
      Exch-Ind20,r                  9.56794736 [mEh]       6.00397761 [kcal/mol]      25.12064233 [kJ/mol]
      Exch-Ind22                    1.18387632 [mEh]       0.74289360 [kcal/mol]       3.10826684 [kJ/mol]
      delta HF,r (2)               -1.54122889 [mEh]      -0.96713573 [kcal/mol]      -4.04649588 [kJ/mol]

    Dispersion                     -5.27458745 [mEh]      -3.30985360 [kcal/mol]     -13.84842745 [kJ/mol]
      Disp20                       -6.33216093 [mEh]      -3.97349097 [kcal/mol]     -16.62508622 [kJ/mol]
      Disp21                        0.48974084 [mEh]       0.30731702 [kcal/mol]       1.28581440 [kJ/mol]
      Disp22 (SDQ)                  0.00816792 [mEh]       0.00512545 [kcal/mol]       0.02144488 [kJ/mol]
      Disp22 (T)                   -0.93537968 [mEh]      -0.58695961 [kcal/mol]      -2.45583900 [kJ/mol]
      Est. Disp22 (T)              -1.08493370 [mEh]      -0.68080617 [kcal/mol]      -2.84849303 [kJ/mol]
      Exch-Disp20                   1.64459840 [mEh]       1.03200108 [kcal/mol]       4.31789252 [kJ/mol]

  Total HF                          0.53267423 [mEh]       0.33425812 [kcal/mol]       1.39853599 [kJ/mol]
  Total SAPT0                      -4.15488830 [mEh]      -2.60723177 [kcal/mol]     -10.90865772 [kJ/mol]
  Total SAPT2                      -4.09501314 [mEh]      -2.56965954 [kcal/mol]     -10.75145551 [kJ/mol]
  Total SAPT2+                     -4.68203807 [mEh]      -2.93802324 [kcal/mol]     -12.29268925 [kJ/mol]

  Special recipe for scaled SAPT0 (see Manual):
    Electrostatics sSAPT0          -8.69722532 [mEh]      -5.45759128 [kcal/mol]     -22.83456193 [kJ/mol]
    Exchange sSAPT0                14.23115209 [mEh]       8.93018276 [kcal/mol]      37.36388467 [kJ/mol]
    Induction sSAPT0               -4.75212752 [mEh]      -2.98200504 [kcal/mol]     -12.47670907 [kJ/mol]
    Dispersion sSAPT0              -4.64474136 [mEh]      -2.91461921 [kcal/mol]     -12.19476676 [kJ/mol]
  Total sSAPT0                     -3.86294210 [mEh]      -2.42403277 [kcal/mol]     -10.14215309 [kJ/mol]
  --------------------------------------------------------------------------------------------------------

*** Psi4 exiting successfully. Buy a developer a beer!
