                               Psi4 1.9 release

  ==> Input File <==

--------------------------------------------------------------------------
MEMORY 60 GB

molecule dimer {
0 1
O      0.000000     0.000000     0.000000
H      0.355314     0.866062    -0.205141
H      0.686367    -0.584246    -0.396274
--
-1 1
Br     3.212066     0.000000     0.000000

units ang
no_reorient
no_com
symmetry c1
}

set {
basis        aug-cc-pVTZ
scf_type     df
}

energy("sapt2+")
--------------------------------------------------------------------------

  //              Dimer HF             //
    Molecular point group: c1
  Charge       = -1
  Multiplicity = 1
  Basis Set: AUG-CC-PVTZ
    Blend: AUG-CC-PVTZ
  Basis Set: (AUG-CC-PVTZ AUX)
    Blend: AUG-CC-PVTZ-JKFIT
  @DF-RHF Final Energy: -2648.60218646361545
    Total Energy =                      -2648.6021864636154532
 Dipole X            :       -219.4921134          214.4158681           -5.0762453
 Dipole Y            :         -0.3533352            0.5325551            0.1792198
 Dipole Z            :          0.8476522           -1.1365096           -0.2888574
 Magnitude           :                                                    5.0876149
  //            Monomer A HF           //
    Molecular point group: c1
  Multiplicity = 1
  Basis Set: AUG-CC-PVTZ
    Blend: AUG-CC-PVTZ
  Basis Set: (AUG-CC-PVTZ AUX)
    Blend: AUG-CC-PVTZ-JKFIT
  @DF-RHF Final Energy:   -76.05854267453654
    Total Energy =                        -76.0585426745365396
  //            Monomer B HF           //
    Molecular point group: c1

    Geometry (in Angstrom), charge = -1, multiplicity = 1:

       Center              X                  Y                   Z               Mass
    ------------   -----------------  -----------------  -----------------  -----------------
      Gh(O)           0.000000000000     0.000000000000     0.000000000000    15.994914619570
      Gh(H)           0.355314000000     0.866062000000    -0.205141000000     1.007825032230
      Gh(H)           0.686367000000    -0.584246000000    -0.396274000000     1.007825032230
         BR           3.212066000000     0.000000000000     0.000000000000    78.918337600000

  Charge       = -1
  Multiplicity = 1
  Basis Set: AUG-CC-PVTZ
    Blend: AUG-CC-PVTZ
  Basis Set: (AUG-CC-PVTZ AUX)
    Blend: AUG-CC-PVTZ-JKFIT

    Orbital Energies [Eh]
    ---------------------

    Doubly Occupied:

       1A   -489.720647     2A    -64.860656     3A    -58.215138
       4A    -58.215138     5A    -58.215134     6A     -9.532915
       7A     -7.140263     8A     -7.140261     9A     -7.140247
      10A     -2.881934    11A     -2.881934    12A     -2.881932
      13A     -2.881927    14A     -2.881913    15A     -0.685998
      16A     -0.139337    17A     -0.139337    18A     -0.139336

  @DF-RHF Final Energy: -2572.53367900106696

   => Energetics <=

    Nuclear Repulsion Energy =              0.0000000000000000
    One-Electron Energy =               -3593.6792607903307726
    Two-Electron Energy =                1021.1455817892639288
    Total Energy =                      -2572.5336790010669574
 Dipole X            :       -218.5174002          212.4473763           -6.0700239
 Dipole Y            :         -0.0000582            0.0000000           -0.0000582
 Dipole Z            :          0.0000106            0.0000000            0.0000106
 Magnitude           :                                                    6.0700239

    SAPT Results
  --------------------------------------------------------------------------------------------------------
    Electrostatics                -22.85958938 [mEh]     -14.34460890 [kcal/mol]     -60.01784364 [kJ/mol]
      Elst10,r                    -22.62633212 [mEh]     -14.19823776 [kcal/mol]     -59.40542680 [kJ/mol]
      Elst12,r                     -0.23325725 [mEh]      -0.14637114 [kcal/mol]      -0.61241684 [kJ/mol]

    Exchange                       19.82138581 [mEh]      12.43810738 [kcal/mol]      52.04104129 [kJ/mol]
      Exch10                       17.66237574 [mEh]      11.08330811 [kcal/mol]      46.37256112 [kJ/mol]
      Exch10(S^2)                  17.47674446 [mEh]      10.96682272 [kcal/mol]      45.88518627 [kJ/mol]
      Exch11(S^2)                   0.66113438 [mEh]       0.41486808 [kcal/mol]       1.73580806 [kJ/mol]
      Exch12(S^2)                   1.49787570 [mEh]       0.93993119 [kcal/mol]       3.93267210 [kJ/mol]

    Induction                      -5.55502592 [mEh]      -3.48583139 [kcal/mol]     -14.58471854 [kJ/mol]
      Ind20,r                     -15.82681207 [mEh]      -9.93147451 [kcal/mol]     -41.55328936 [kJ/mol]
      Ind22                        -2.43102559 [mEh]      -1.52549159 [kcal/mol]      -6.38265680 [kJ/mol]
      Exch-Ind20,r                 12.21881680 [mEh]       7.66742330 [kcal/mol]      32.08049908 [kJ/mol]
      Exch-Ind22                    1.87683130 [mEh]       1.17772942 [kcal/mol]       4.92761990 [kJ/mol]
      delta HF,r (2)               -1.39283636 [mEh]      -0.87401801 [kcal/mol]      -3.65689135 [kJ/mol]

    Dispersion                     -6.39886715 [mEh]      -4.01534976 [kcal/mol]     -16.80022340 [kJ/mol]
      Disp20                       -7.49032869 [mEh]      -4.70025222 [kcal/mol]     -19.66585527 [kJ/mol]
      Disp21                        0.47683017 [mEh]       0.29921545 [kcal/mol]       1.25191743 [kJ/mol]
      Disp22 (SDQ)                 -0.05409865 [mEh]      -0.03394742 [kcal/mol]      -0.14203599 [kJ/mol]
      Disp22 (T)                   -1.15502268 [mEh]      -0.72478768 [kcal/mol]      -3.03251163 [kJ/mol]
      Est. Disp22 (T)              -1.33724736 [mEh]      -0.83913539 [kcal/mol]      -3.51094245 [kJ/mol]
      Exch-Disp20                   2.00597738 [mEh]       1.25876981 [kcal/mol]       5.26669288 [kJ/mol]

  Total HF                         -9.96478801 [mEh]      -6.25299888 [kcal/mol]     -26.16254732 [kJ/mol]
  Total SAPT0                     -15.44913932 [mEh]      -9.69448129 [kcal/mol]     -40.56170971 [kJ/mol]
  Total SAPT2                     -14.07758079 [mEh]      -8.83381531 [kcal/mol]     -36.96068328 [kJ/mol]
  Total SAPT2+                    -14.99209663 [mEh]      -9.40768267 [kcal/mol]     -39.36174429 [kJ/mol]

  Special recipe for scaled SAPT0 (see Manual):
    Electrostatics sSAPT0         -22.62633212 [mEh]     -14.19823776 [kcal/mol]     -59.40542680 [kJ/mol]
    Exchange sSAPT0                17.66237574 [mEh]      11.08330811 [kcal/mol]      46.37256112 [kJ/mol]
    Induction sSAPT0               -4.60733070 [mEh]      -2.89114366 [kcal/mol]     -12.09654507 [kJ/mol]
    Dispersion sSAPT0              -5.41974981 [mEh]      -3.40094435 [kcal/mol]     -14.22955115 [kJ/mol]
  Total sSAPT0                    -14.99103688 [mEh]      -9.40701766 [kcal/mol]     -39.35896191 [kJ/mol]
  --------------------------------------------------------------------------------------------------------

*** Psi4 exiting successfully. Buy a developer a beer!
