                               Psi4 1.9 release

  ==> Input File <==

--------------------------------------------------------------------------
MEMORY 60 GB

molecule dimer {
0 1
O      0.000000     0.000000     0.000000
H      0.149084     0.942740    -0.086074
H      0.793935    -0.359212    -0.458378
--
-1 1
Br     3.212066     0.000000     0.000000

units ang
no_reorient
no_com
symmetry c1
}

set {
basis        aug-cc-pVTZ
scf_type     df
}

energy("sapt2+")
--------------------------------------------------------------------------

  //              Dimer HF             //
    Molecular point group: c1
  Charge       = -1
  Multiplicity = 1
  Basis Set: AUG-CC-PVTZ
    Blend: AUG-CC-PVTZ
  Basis Set: (AUG-CC-PVTZ AUX)
    Blend: AUG-CC-PVTZ-JKFIT
  @DF-RHF Final Energy: -2648.60231478096057
    Total Energy =                      -2648.6023147809601141
 Dipole X            :       -219.3335340          214.2294239           -5.1041100
 Dipole Y            :         -0.7472399            1.1027081            0.3554682
 Dipole Z            :          0.7831416           -1.0288652           -0.2457236
 Magnitude           :                                                    5.1223702
  //            Monomer A HF           //
    Molecular point group: c1
  Multiplicity = 1
  Basis Set: AUG-CC-PVTZ
    Blend: AUG-CC-PVTZ
  Basis Set: (AUG-CC-PVTZ AUX)
    Blend: AUG-CC-PVTZ-JKFIT
  @DF-RHF Final Energy:   -76.05855083600973
    Total Energy =                        -76.0585508360097293
  //            Monomer B HF           //
    Molecular point group: c1

    Geometry (in Angstrom), charge = -1, multiplicity = 1:

       Center              X                  Y                   Z               Mass
    ------------   -----------------  -----------------  -----------------  -----------------
      Gh(O)           0.000000000000     0.000000000000     0.000000000000    15.994914619570
      Gh(H)           0.149084000000     0.942740000000    -0.086074000000     1.007825032230
      Gh(H)           0.793935000000    -0.359212000000    -0.458378000000     1.007825032230
         BR           3.212066000000     0.000000000000     0.000000000000    78.918337600000

  Charge       = -1
  Multiplicity = 1
  Basis Set: AUG-CC-PVTZ
    Blend: AUG-CC-PVTZ
  Basis Set: (AUG-CC-PVTZ AUX)
    Blend: AUG-CC-PVTZ-JKFIT

    Orbital Energies [Eh]
    ---------------------

    Doubly Occupied:

       1A   -489.720700     2A    -64.860692     3A    -58.215177
       4A    -58.215176     5A    -58.215172     6A     -9.532926
       7A     -7.140275     8A     -7.140274     9A     -7.140255
      10A     -2.881947    11A     -2.881947    12A     -2.881944
      13A     -2.881941    14A     -2.881924    15A     -0.685998
      16A     -0.139338    17A     -0.139338    18A     -0.139336

  @DF-RHF Final Energy: -2572.53368003662126

   => Energetics <=

    Nuclear Repulsion Energy =              0.0000000000000000
    One-Electron Energy =               -3593.6786374277535288
    Two-Electron Energy =                1021.1449573911320385
    Total Energy =                      -2572.5336800366212628
 Dipole X            :       -218.5174582          212.4473763           -6.0700819
 Dipole Y            :         -0.0000874            0.0000000           -0.0000874
 Dipole Z            :         -0.0000490            0.0000000           -0.0000490
 Magnitude           :                                                    6.0700819

    SAPT Results
  --------------------------------------------------------------------------------------------------------
    Electrostatics                -23.14965578 [mEh]     -14.52662832 [kcal/mol]     -60.77941289 [kJ/mol]
      Elst10,r                    -22.84212925 [mEh]     -14.33365250 [kcal/mol]     -59.97200207 [kJ/mol]
      Elst12,r                     -0.30752654 [mEh]      -0.19297582 [kcal/mol]      -0.80741081 [kJ/mol]

    Exchange                       21.25393290 [mEh]      13.33704425 [kcal/mol]      55.80219314 [kJ/mol]
      Exch10                       19.03377639 [mEh]      11.94387500 [kcal/mol]      49.97317302 [kJ/mol]
      Exch10(S^2)                  18.80714227 [mEh]      11.80165995 [kcal/mol]      49.37814522 [kJ/mol]
      Exch11(S^2)                   0.70167586 [mEh]       0.44030825 [kcal/mol]       1.84224972 [kJ/mol]
      Exch12(S^2)                   1.51848065 [mEh]       0.95286099 [kcal/mol]       3.98677040 [kJ/mol]

    Induction                      -6.89531040 [mEh]      -4.32687260 [kcal/mol]     -18.10363496 [kJ/mol]
      Ind20,r                     -16.84295617 [mEh]     -10.56911456 [kcal/mol]     -44.22117533 [kJ/mol]
      Ind22                        -2.45145224 [mEh]      -1.53830951 [kcal/mol]      -6.43628697 [kJ/mol]
      Exch-Ind20,r                 12.58486581 [mEh]       7.89712252 [kcal/mol]      33.04156064 [kJ/mol]
      Exch-Ind22                    1.83169731 [mEh]       1.14940742 [kcal/mol]       4.80912062 [kJ/mol]
      delta HF,r (2)               -2.01746511 [mEh]      -1.26597847 [kcal/mol]      -5.29685393 [kJ/mol]

    Dispersion                     -6.61628310 [mEh]      -4.15178032 [kcal/mol]     -17.37104888 [kJ/mol]
      Disp20                       -7.76652376 [mEh]      -4.87356724 [kcal/mol]     -20.39100532 [kJ/mol]
      Disp21                        0.49747224 [mEh]       0.31216855 [kcal/mol]       1.30611320 [kJ/mol]
      Disp22 (SDQ)                 -0.03070532 [mEh]      -0.01926788 [kcal/mol]      -0.08061679 [kJ/mol]
      Disp22 (T)                   -1.18800140 [mEh]      -0.74548213 [kcal/mol]      -3.11909724 [kJ/mol]
      Est. Disp22 (T)              -1.37153735 [mEh]      -0.86065268 [kcal/mol]      -3.60097082 [kJ/mol]
      Exch-Disp20                   2.05501109 [mEh]       1.28953893 [kcal/mol]       5.39543087 [kJ/mol]

  Total HF                        -10.08390833 [mEh]      -6.32774801 [kcal/mol]     -26.47529767 [kJ/mol]
  Total SAPT0                     -15.79542100 [mEh]      -9.91177632 [kcal/mol]     -41.47087213 [kJ/mol]
  Total SAPT2                     -14.50254596 [mEh]      -9.10048498 [kcal/mol]     -38.07642917 [kJ/mol]
  Total SAPT2+                    -15.40731638 [mEh]      -9.66823700 [kcal/mol]     -40.45190359 [kJ/mol]

  Special recipe for scaled SAPT0 (see Manual):
    Electrostatics sSAPT0         -22.84212925 [mEh]     -14.33365250 [kcal/mol]     -59.97200207 [kJ/mol]
    Exchange sSAPT0                19.03377639 [mEh]      11.94387500 [kcal/mol]      49.97317302 [kJ/mol]
    Induction sSAPT0               -5.81509192 [mEh]      -3.64902527 [kcal/mol]     -15.26752174 [kJ/mol]
    Dispersion sSAPT0              -5.63632254 [mEh]      -3.53684579 [kcal/mol]     -14.79816280 [kJ/mol]
  Total sSAPT0                    -15.25976733 [mEh]      -9.57564857 [kcal/mol]     -40.06451360 [kJ/mol]
  --------------------------------------------------------------------------------------------------------

*** Psi4 exiting successfully. Buy a developer a beer!
