                               Psi4 1.9 release

  ==> Input File <==

--------------------------------------------------------------------------
MEMORY 60 GB

molecule dimer {
0 1
O      0.000000     0.000000     0.000000
H     -0.067305     0.955172     0.038858
H      0.847397    -0.109698    -0.489245
--
-1 1
Br     3.212066     0.000000     0.000000

units ang
no_reorient
no_com
symmetry c1
}

set {
basis        aug-cc-pVTZ
scf_type     df
}

energy("sapt2+")
--------------------------------------------------------------------------

  //              Dimer HF             //
    Molecular point group: c1
  Charge       = -1
  Multiplicity = 1
  Basis Set: AUG-CC-PVTZ
    Blend: AUG-CC-PVTZ
  Basis Set: (AUG-CC-PVTZ AUX)
    Blend: AUG-CC-PVTZ-JKFIT
  @DF-RHF Final Energy: -2648.60168672600594
    Total Energy =                      -2648.6016867260059371
 Dipole X            :       -219.1078811          213.9215365           -5.1863446
 Dipole Y            :         -1.1049350            1.5977143            0.4927794
 Dipole Z            :          0.6686409           -0.8511081           -0.1824671
 Magnitude           :                                                    5.2128971
  //            Monomer A HF           //
    Molecular point group: c1
  Multiplicity = 1
  Basis Set: AUG-CC-PVTZ
    Blend: AUG-CC-PVTZ
  Basis Set: (AUG-CC-PVTZ AUX)
    Blend: AUG-CC-PVTZ-JKFIT
  @DF-RHF Final Energy:   -76.05855711113576
    Total Energy =                        -76.0585571111357694
  //            Monomer B HF           //
    Molecular point group: c1

    Geometry (in Angstrom), charge = -1, multiplicity = 1:

       Center              X                  Y                   Z               Mass
    ------------   -----------------  -----------------  -----------------  -----------------
      Gh(O)           0.000000000000     0.000000000000     0.000000000000    15.994914619570
      Gh(H)          -0.067305000000     0.955172000000     0.038858000000     1.007825032230
      Gh(H)           0.847397000000    -0.109698000000    -0.489245000000     1.007825032230
         BR           3.212066000000     0.000000000000     0.000000000000    78.918337600000

  Charge       = -1
  Multiplicity = 1
  Basis Set: AUG-CC-PVTZ
    Blend: AUG-CC-PVTZ
  Basis Set: (AUG-CC-PVTZ AUX)
    Blend: AUG-CC-PVTZ-JKFIT

    Orbital Energies [Eh]
    ---------------------

    Doubly Occupied:

       1A   -489.720731     2A    -64.860715     3A    -58.215200
       4A    -58.215200     5A    -58.215196     6A     -9.532934
       7A     -7.140283     8A     -7.140282     9A     -7.140262
      10A     -2.881956    11A     -2.881955    12A     -2.881951
      13A     -2.881949    14A     -2.881932    15A     -0.685999
      16A     -0.139339    17A     -0.139339    18A     -0.139336

  @DF-RHF Final Energy: -2572.53368065314589

   => Energetics <=

    Nuclear Repulsion Energy =              0.0000000000000000
    One-Electron Energy =               -3593.6782415731313449
    Two-Electron Energy =                1021.1445609199852242
    Total Energy =                      -2572.5336806531458933
 Dipole X            :       -218.5174771          212.4473763           -6.0701008
 Dipole Y            :         -0.0000786            0.0000000           -0.0000786
 Dipole Z            :         -0.0001095            0.0000000           -0.0001095
 Magnitude           :                                                    6.0701008

    SAPT Results
  --------------------------------------------------------------------------------------------------------
    Electrostatics                -22.38295012 [mEh]     -14.04551325 [kcal/mol]     -58.76642743 [kJ/mol]
      Elst10,r                    -21.96571039 [mEh]     -13.78369137 [kcal/mol]     -57.67096469 [kJ/mol]
      Elst12,r                     -0.41723972 [mEh]      -0.26182188 [kcal/mol]      -1.09546274 [kJ/mol]

    Exchange                       22.06621672 [mEh]      13.84676004 [kcal/mol]      57.93484401 [kJ/mol]
      Exch10                       19.86861911 [mEh]      12.46774672 [kcal/mol]      52.16505229 [kJ/mol]
      Exch10(S^2)                  19.61411060 [mEh]      12.30804022 [kcal/mol]      51.49684028 [kJ/mol]
      Exch11(S^2)                   0.69779250 [mEh]       0.43787140 [kcal/mol]       1.83205395 [kJ/mol]
      Exch12(S^2)                   1.49980511 [mEh]       0.94114192 [kcal/mol]       3.93773778 [kJ/mol]

    Induction                      -8.00486524 [mEh]      -5.02312878 [kcal/mol]     -21.01677080 [kJ/mol]
      Ind20,r                     -17.41790311 [mEh]     -10.92989921 [kcal/mol]     -45.73069830 [kJ/mol]
      Ind22                        -2.37305100 [mEh]      -1.48911198 [kcal/mol]      -6.23044454 [kJ/mol]
      Exch-Ind20,r                 12.62500142 [mEh]       7.92230800 [kcal/mol]      33.14693666 [kJ/mol]
      Exch-Ind22                    1.72005620 [mEh]       1.07935156 [kcal/mol]       4.51600693 [kJ/mol]
      delta HF,r (2)               -2.55896876 [mEh]      -1.60577714 [kcal/mol]      -6.71857155 [kJ/mol]

    Dispersion                     -6.69898833 [mEh]      -4.20367864 [kcal/mol]     -17.58819144 [kJ/mol]
      Disp20                       -7.89358411 [mEh]      -4.95329881 [kcal/mol]     -20.72460223 [kJ/mol]
      Disp21                        0.51345674 [mEh]       0.32219897 [kcal/mol]       1.34808048 [kJ/mol]
      Disp22 (SDQ)                 -0.00295631 [mEh]      -0.00185511 [kcal/mol]      -0.00776179 [kJ/mol]
      Disp22 (T)                   -1.19922880 [mEh]      -0.75252743 [kcal/mol]      -3.14857479 [kJ/mol]
      Est. Disp22 (T)              -1.37806096 [mEh]      -0.86474631 [kcal/mol]      -3.61809855 [kJ/mol]
      Exch-Disp20                   2.06215631 [mEh]       1.29402262 [kcal/mol]       5.41419065 [kJ/mol]

  Total HF                         -9.44896172 [mEh]      -5.92931300 [kcal/mol]     -24.80824559 [kJ/mol]
  Total SAPT0                     -15.28038953 [mEh]      -9.58858919 [kcal/mol]     -40.11865717 [kJ/mol]
  Total SAPT2                     -14.15302644 [mEh]      -8.88115817 [kcal/mol]     -37.15876580 [kJ/mol]
  Total SAPT2+                    -15.02058697 [mEh]      -9.42556062 [kcal/mol]     -39.43654565 [kJ/mol]

  Special recipe for scaled SAPT0 (see Manual):
    Electrostatics sSAPT0         -21.96571039 [mEh]     -13.78369137 [kcal/mol]     -57.67096469 [kJ/mol]
    Exchange sSAPT0                19.86861911 [mEh]      12.46774672 [kcal/mol]      52.16505229 [kJ/mol]
    Induction sSAPT0               -6.85400784 [mEh]      -4.30095485 [kcal/mol]     -17.99519509 [kJ/mol]
    Dispersion sSAPT0              -5.75010737 [mEh]      -3.60824685 [kcal/mol]     -15.09690483 [kJ/mol]
  Total sSAPT0                    -14.70120649 [mEh]      -9.22514635 [kcal/mol]     -38.59801232 [kJ/mol]
  --------------------------------------------------------------------------------------------------------

*** Psi4 exiting successfully. Buy a developer a beer!
