                               Psi4 1.9 release

  ==> Input File <==

--------------------------------------------------------------------------
MEMORY 60 GB

molecule dimer {
0 1
O      0.000000     0.000000     0.000000
H     -0.750031     0.410281     0.433031
H      0.505972     0.792548    -0.292123
--
-1 1
Br     3.212066     0.000000     0.000000

units ang
no_reorient
no_com
symmetry c1
}

set {
basis        aug-cc-pVTZ
scf_type     df
}

energy("sapt2+")
--------------------------------------------------------------------------

  //              Dimer HF             //
    Molecular point group: c1
  Charge       = -1
  Multiplicity = 1
  Basis Set: AUG-CC-PVTZ
    Blend: AUG-CC-PVTZ
  Basis Set: (AUG-CC-PVTZ AUX)
    Blend: AUG-CC-PVTZ-JKFIT
  @DF-RHF Final Energy: -2648.58680758637820
    Total Energy =                      -2648.5868075863781996
 Dipole X            :       -218.0771547          211.9861716           -6.0909831
 Dipole Y            :         -1.6331489            2.2730174            0.6398685
 Dipole Z            :         -0.1387275            0.2662775            0.1275500
 Magnitude           :                                                    6.1258286
  //            Monomer A HF           //
    Molecular point group: c1
  Multiplicity = 1
  Basis Set: AUG-CC-PVTZ
    Blend: AUG-CC-PVTZ
  Basis Set: (AUG-CC-PVTZ AUX)
    Blend: AUG-CC-PVTZ-JKFIT
  @DF-RHF Final Energy:   -76.05853727702743
    Total Energy =                        -76.0585372770274262
  //            Monomer B HF           //
    Molecular point group: c1

    Geometry (in Angstrom), charge = -1, multiplicity = 1:

       Center              X                  Y                   Z               Mass
    ------------   -----------------  -----------------  -----------------  -----------------
      Gh(O)           0.000000000000     0.000000000000     0.000000000000    15.994914619570
      Gh(H)          -0.750031000000     0.410281000000     0.433031000000     1.007825032230
      Gh(H)           0.505972000000     0.792548000000    -0.292123000000     1.007825032230
         BR           3.212066000000     0.000000000000     0.000000000000    78.918337600000

  Charge       = -1
  Multiplicity = 1
  Basis Set: AUG-CC-PVTZ
    Blend: AUG-CC-PVTZ
  Basis Set: (AUG-CC-PVTZ AUX)
    Blend: AUG-CC-PVTZ-JKFIT

    Orbital Energies [Eh]
    ---------------------

    Doubly Occupied:

       1A   -489.720555     2A    -64.860590     3A    -58.215068
       4A    -58.215067     5A    -58.215065     6A     -9.532895
       7A     -7.140240     8A     -7.140239     9A     -7.140229
      10A     -2.881909    11A     -2.881909    12A     -2.881909
      13A     -2.881906    14A     -2.881895    15A     -0.685998
      16A     -0.139337    17A     -0.139336    18A     -0.139336

  @DF-RHF Final Energy: -2572.53367596567523

   => Energetics <=

    Nuclear Repulsion Energy =              0.0000000000000000
    One-Electron Energy =               -3593.6803764328028592
    Two-Electron Energy =                1021.1467004671278573
    Total Energy =                      -2572.5336759656747745
 Dipole X            :       -218.5172233          212.4473763           -6.0698470
 Dipole Y            :          0.0000837            0.0000000            0.0000837
 Dipole Z            :         -0.0000421            0.0000000           -0.0000421
 Magnitude           :                                                    6.0698470

    SAPT Results
  --------------------------------------------------------------------------------------------------------
    Electrostatics                 -3.90643006 [mEh]      -2.45132187 [kcal/mol]     -10.25633070 [kJ/mol]
      Elst10,r                     -2.62348249 [mEh]      -1.64626011 [kcal/mol]      -6.88795232 [kJ/mol]
      Elst12,r                     -1.28294757 [mEh]      -0.80506176 [kcal/mol]      -3.36837839 [kJ/mol]

    Exchange                       13.33416701 [mEh]       8.36731612 [kcal/mol]      35.00885066 [kJ/mol]
      Exch10                       12.00663107 [mEh]       7.53427474 [kcal/mol]      31.52340552 [kJ/mol]
      Exch10(S^2)                  11.92346159 [mEh]       7.48208511 [kcal/mol]      31.30504408 [kJ/mol]
      Exch11(S^2)                   0.15658098 [mEh]       0.09825605 [kcal/mol]       0.41110330 [kJ/mol]
      Exch12(S^2)                   1.17095496 [mEh]       0.73478533 [kcal/mol]       3.07434183 [kJ/mol]

    Induction                      -4.34187235 [mEh]      -2.72456603 [kcal/mol]     -11.39958427 [kJ/mol]
      Ind20,r                     -11.39741303 [mEh]      -7.15198466 [kcal/mol]     -29.92390380 [kJ/mol]
      Ind22                        -1.44601154 [mEh]      -0.90738594 [kcal/mol]      -3.79650277 [kJ/mol]
      Exch-Ind20,r                  8.52538174 [mEh]       5.34975781 [kcal/mol]      22.38338667 [kJ/mol]
      Exch-Ind22                    1.08163145 [mEh]       0.67873398 [kcal/mol]       2.83982298 [kJ/mol]
      delta HF,r (2)               -1.10546096 [mEh]      -0.69368723 [kcal/mol]      -2.90238736 [kJ/mol]

    Dispersion                     -4.71573968 [mEh]      -2.95917133 [kcal/mol]     -12.38117283 [kJ/mol]
      Disp20                       -5.69762807 [mEh]      -3.57531559 [kcal/mol]     -14.95912044 [kJ/mol]
      Disp21                        0.48910080 [mEh]       0.30691539 [kcal/mol]       1.28413398 [kJ/mol]
      Disp22 (SDQ)                 -0.01203648 [mEh]      -0.00755301 [kcal/mol]      -0.03160178 [kJ/mol]
      Disp22 (T)                   -0.83816989 [mEh]      -0.52595955 [kcal/mol]      -2.20061474 [kJ/mol]
      Est. Disp22 (T)              -0.98142232 [mEh]      -0.61585180 [kcal/mol]      -2.57672395 [kJ/mol]
      Exch-Disp20                   1.48624639 [mEh]       0.93263369 [kcal/mol]       3.90213937 [kJ/mol]

  Total HF                          5.40565632 [mEh]       3.39210056 [kcal/mol]      14.19254872 [kJ/mol]
  Total SAPT0                       1.19427465 [mEh]       0.74941865 [kcal/mol]       3.13556765 [kJ/mol]
  Total SAPT2                       0.87448293 [mEh]       0.54874632 [kcal/mol]       2.29595460 [kJ/mol]
  Total SAPT2+                      0.37012492 [mEh]       0.23225690 [kcal/mol]       0.97176285 [kJ/mol]

  Special recipe for scaled SAPT0 (see Manual):
    Electrostatics sSAPT0          -2.62348249 [mEh]      -1.64626011 [kcal/mol]      -6.88795232 [kJ/mol]
    Exchange sSAPT0                12.00663107 [mEh]       7.53427474 [kcal/mol]      31.52340552 [kJ/mol]
    Induction sSAPT0               -3.79784420 [mEh]      -2.38318321 [kcal/mol]      -9.97123857 [kJ/mol]
    Dispersion sSAPT0              -4.18006328 [mEh]      -2.62302931 [kcal/mol]     -10.97475464 [kJ/mol]
  Total sSAPT0                      1.40524110 [mEh]       0.88180210 [kcal/mol]       3.68946000 [kJ/mol]
  --------------------------------------------------------------------------------------------------------

*** Psi4 exiting successfully. Buy a developer a beer!
