                               Psi4 1.9 release

  ==> Input File <==

--------------------------------------------------------------------------
MEMORY 60 GB

molecule dimer {
0 1
O      0.000000     0.000000     0.000000
H     -0.471889     0.788345     0.272445
H      0.781368     0.394244    -0.451123
--
-1 1
Br     3.212066     0.000000     0.000000

units ang
no_reorient
no_com
symmetry c1
}

set {
basis        aug-cc-pVTZ
scf_type     df
}

energy("sapt2+")
--------------------------------------------------------------------------

  //              Dimer HF             //
    Molecular point group: c1
  Charge       = -1
  Multiplicity = 1
  Basis Set: AUG-CC-PVTZ
    Blend: AUG-CC-PVTZ
  Basis Set: (AUG-CC-PVTZ AUX)
    Blend: AUG-CC-PVTZ-JKFIT
  @DF-RHF Final Energy: -2648.59621528647449
    Total Energy =                      -2648.5962152864744894
 Dipole X            :       -218.5990884          213.0322068           -5.5668815
 Dipole Y            :         -1.5921244            2.2347693            0.6426449
 Dipole Z            :          0.3064200           -0.3376525           -0.0312325
 Magnitude           :                                                    5.6039395
  //            Monomer A HF           //
    Molecular point group: c1
  Multiplicity = 1
  Basis Set: AUG-CC-PVTZ
    Blend: AUG-CC-PVTZ
  Basis Set: (AUG-CC-PVTZ AUX)
    Blend: AUG-CC-PVTZ-JKFIT
  @DF-RHF Final Energy:   -76.05854907882150
    Total Energy =                        -76.0585490788214997
  //            Monomer B HF           //
    Molecular point group: c1

    Geometry (in Angstrom), charge = -1, multiplicity = 1:

       Center              X                  Y                   Z               Mass
    ------------   -----------------  -----------------  -----------------  -----------------
      Gh(O)           0.000000000000     0.000000000000     0.000000000000    15.994914619570
      Gh(H)          -0.471889000000     0.788345000000     0.272445000000     1.007825032230
      Gh(H)           0.781368000000     0.394244000000    -0.451123000000     1.007825032230
         BR           3.212066000000     0.000000000000     0.000000000000    78.918337600000

  Charge       = -1
  Multiplicity = 1
  Basis Set: AUG-CC-PVTZ
    Blend: AUG-CC-PVTZ
  Basis Set: (AUG-CC-PVTZ AUX)
    Blend: AUG-CC-PVTZ-JKFIT

    Orbital Energies [Eh]
    ---------------------

    Doubly Occupied:

       1A   -489.720680     2A    -64.860679     3A    -58.215163
       4A    -58.215162     5A    -58.215159     6A     -9.532922
       7A     -7.140271     8A     -7.140270     9A     -7.140253
      10A     -2.881943    11A     -2.881942    12A     -2.881939
      13A     -2.881937    14A     -2.881921    15A     -0.685999
      16A     -0.139339    17A     -0.139338    18A     -0.139337

  @DF-RHF Final Energy: -2572.53367946039225

   => Energetics <=

    Nuclear Repulsion Energy =              0.0000000000000000
    One-Electron Energy =               -3593.6788449122686870
    Two-Electron Energy =                1021.1451654518762098
    Total Energy =                      -2572.5336794603927046
 Dipole X            :       -218.5173824          212.4473763           -6.0700062
 Dipole Y            :          0.0000272            0.0000000            0.0000272
 Dipole Z            :         -0.0001178            0.0000000           -0.0001178
 Magnitude           :                                                    6.0700062

    SAPT Results
  --------------------------------------------------------------------------------------------------------
    Electrostatics                -15.32735557 [mEh]      -9.61806083 [kcal/mol]     -40.24196652 [kJ/mol]
      Elst10,r                    -14.55945761 [mEh]      -9.13619758 [kcal/mol]     -38.22585069 [kJ/mol]
      Elst12,r                     -0.76789796 [mEh]      -0.48186325 [kcal/mol]      -2.01611582 [kJ/mol]

    Exchange                       18.68814017 [mEh]      11.72698500 [kcal/mol]      49.06570526 [kJ/mol]
      Exch10                       16.92539344 [mEh]      10.62084473 [kcal/mol]      44.43761437 [kJ/mol]
      Exch10(S^2)                  16.74579083 [mEh]      10.50814239 [kcal/mol]      43.96606777 [kJ/mol]
      Exch11(S^2)                   0.46061687 [mEh]       0.28904145 [kcal/mol]       1.20934943 [kJ/mol]
      Exch12(S^2)                   1.30212985 [mEh]       0.81709882 [kcal/mol]       3.41874146 [kJ/mol]

    Induction                      -6.87369082 [mEh]      -4.31330611 [kcal/mol]     -18.04687277 [kJ/mol]
      Ind20,r                     -15.04686490 [mEh]      -9.44205027 [kcal/mol]     -39.50553835 [kJ/mol]
      Ind22                        -1.86196377 [mEh]      -1.16839991 [kcal/mol]      -4.88858522 [kJ/mol]
      Exch-Ind20,r                 10.83650754 [mEh]       6.80001114 [kcal/mol]      28.45124662 [kJ/mol]
      Exch-Ind22                    1.34095605 [mEh]       0.84146262 [kcal/mol]       3.52067962 [kJ/mol]
      delta HF,r (2)               -2.14232573 [mEh]      -1.34432969 [kcal/mol]      -5.62467544 [kJ/mol]

    Dispersion                     -5.92173684 [mEh]      -3.71594597 [kcal/mol]     -15.54751792 [kJ/mol]
      Disp20                       -7.05908654 [mEh]      -4.42964368 [kcal/mol]     -18.53362916 [kJ/mol]
      Disp21                        0.50030387 [mEh]       0.31394542 [kcal/mol]       1.31354763 [kJ/mol]
      Disp22 (SDQ)                  0.02053449 [mEh]       0.01288559 [kcal/mol]       0.05391330 [kJ/mol]
      Disp22 (T)                   -1.04465222 [mEh]      -0.65552916 [kcal/mol]      -2.74273402 [kJ/mol]
      Est. Disp22 (T)              -1.21202237 [mEh]      -0.76055552 [kcal/mol]      -3.18216429 [kJ/mol]
      Exch-Disp20                   1.82853371 [mEh]       1.14742223 [kcal/mol]       4.80081460 [kJ/mol]

  Total HF                         -3.98674726 [mEh]      -2.50172168 [kcal/mol]     -10.46720349 [kJ/mol]
  Total SAPT0                      -9.21730009 [mEh]      -5.78394313 [kcal/mol]     -24.20001805 [kJ/mol]
  Total SAPT2                      -8.74345905 [mEh]      -5.48660339 [kcal/mol]     -22.95594858 [kJ/mol]
  Total SAPT2+                     -9.43464306 [mEh]      -5.92032790 [kcal/mol]     -24.77065194 [kJ/mol]

  Special recipe for scaled SAPT0 (see Manual):
    Electrostatics sSAPT0         -14.55945761 [mEh]      -9.13619758 [kcal/mol]     -38.22585069 [kJ/mol]
    Exchange sSAPT0                16.92539344 [mEh]      10.62084473 [kcal/mol]      44.43761437 [kJ/mol]
    Induction sSAPT0               -6.00025772 [mEh]      -3.76521856 [kcal/mol]     -15.75367447 [kJ/mol]
    Dispersion sSAPT0              -5.17108517 [mEh]      -3.24490494 [kcal/mol]     -13.57668225 [kJ/mol]
  Total sSAPT0                     -8.80540706 [mEh]      -5.52547635 [kcal/mol]     -23.11859305 [kJ/mol]
  --------------------------------------------------------------------------------------------------------

*** Psi4 exiting successfully. Buy a developer a beer!
