                               Psi4 1.9 release

  ==> Input File <==

--------------------------------------------------------------------------
MEMORY 60 GB

molecule dimer {
0 1
O      0.000000     0.000000     0.000000
H      0.260930     0.889406    -0.260930
H     -0.675113     0.125130     0.675113
--
1 1
Li     1.828878     0.000000     0.000000

units ang
no_reorient
no_com
symmetry c1
}

set {
basis        aug-cc-pVTZ
scf_type     df
}

energy("sapt2+")
--------------------------------------------------------------------------

  //              Dimer HF             //
    Molecular point group: c1
  Charge       = 1
  Multiplicity = 1
  Basis Set: AUG-CC-PVTZ
    Blend: AUG-CC-PVTZ
  Basis Set: (AUG-CC-PVTZ AUX)
    Blend: AUG-CC-PVTZ-JKFIT + DEF2-UNIVERSAL-JKFIT
  @DF-RHF Final Energy:   -83.32730543524950
    Total Energy =                        -83.3273054352494853
 Dipole X            :         -6.8559713            9.5855432            2.7295718
 Dipole Y            :         -1.2154922            1.9171952            0.7017030
 Dipole Z            :         -0.4625499            0.7826924            0.3201426
 Magnitude           :                                                    2.8364486
  //            Monomer A HF           //
    Molecular point group: c1
  Multiplicity = 1
  Basis Set: AUG-CC-PVTZ
    Blend: AUG-CC-PVTZ
  Basis Set: (AUG-CC-PVTZ AUX)
    Blend: AUG-CC-PVTZ-JKFIT + DEF2-UNIVERSAL-JKFIT
  @DF-RHF Final Energy:   -76.06026787147005
    Total Energy =                        -76.0602678714700460
  //            Monomer B HF           //
    Molecular point group: c1

    Geometry (in Angstrom), charge = 1, multiplicity = 1:

       Center              X                  Y                   Z               Mass
    ------------   -----------------  -----------------  -----------------  -----------------
      Gh(O)           0.000000000000     0.000000000000     0.000000000000    15.994914619570
      Gh(H)           0.260930000000     0.889406000000    -0.260930000000     1.007825032230
      Gh(H)          -0.675113000000     0.125130000000     0.675113000000     1.007825032230
         LI           1.828878000000     0.000000000000     0.000000000000     7.016003436600

  Charge       = 1
  Multiplicity = 1
  Basis Set: AUG-CC-PVTZ
    Blend: AUG-CC-PVTZ
  Basis Set: (AUG-CC-PVTZ AUX)
    Blend: AUG-CC-PVTZ-JKFIT + DEF2-UNIVERSAL-JKFIT

    Orbital Energies [Eh]
    ---------------------

    Doubly Occupied:

       1A     -2.792368

  @DF-RHF Final Energy:    -7.23638356830766

   => Energetics <=

    Nuclear Repulsion Energy =              0.0000000000000000
    One-Electron Energy =                  -8.8880312172198632
    Two-Electron Energy =                   1.6516476489122001
    Total Energy =                         -7.2363835683076632
 Dipole X            :         -6.9121772           10.3682356            3.4560584
 Dipole Y            :         -0.0000007            0.0000000           -0.0000007
 Dipole Z            :          0.0000123            0.0000000            0.0000123
 Magnitude           :                                                    3.4560584

    SAPT Results
  --------------------------------------------------------------------------------------------------------
    Electrostatics                -29.78735278 [mEh]     -18.69184607 [kcal/mol]     -78.20668395 [kJ/mol]
      Elst10,r                    -31.67399359 [mEh]     -19.87573105 [kcal/mol]     -83.16005872 [kJ/mol]
      Elst12,r                      1.88664081 [mEh]       1.18388498 [kcal/mol]       4.95337477 [kJ/mol]

    Exchange                       23.71295037 [mEh]      14.88010101 [kcal/mol]      62.25834262 [kJ/mol]
      Exch10                       21.92787763 [mEh]      13.75995096 [kcal/mol]      57.57163480 [kJ/mol]
      Exch10(S^2)                  21.80342403 [mEh]      13.68185514 [kcal/mol]      57.24488190 [kJ/mol]
      Exch11(S^2)                  -0.11650990 [mEh]      -0.07311106 [kcal/mol]      -0.30589669 [kJ/mol]
      Exch12(S^2)                   1.90158264 [mEh]       1.19326112 [kcal/mol]       4.99260452 [kJ/mol]

    Induction                     -22.71052196 [mEh]     -14.25106768 [kcal/mol]     -59.62646718 [kJ/mol]
      Ind20,r                     -35.33044385 [mEh]     -22.17018823 [kcal/mol]     -92.76006754 [kJ/mol]
      Ind22                        -3.36438205 [mEh]      -2.11118161 [kcal/mol]      -8.83318386 [kJ/mol]
      Exch-Ind20,r                 16.40032337 [mEh]      10.29135829 [kcal/mol]      43.05904307 [kJ/mol]
      Exch-Ind22                    1.56173961 [mEh]       0.98000640 [kcal/mol]       4.10034678 [kJ/mol]
      delta HF,r (2)               -1.97775904 [mEh]      -1.24106253 [kcal/mol]      -5.19260563 [kJ/mol]

    Dispersion                     -1.04815241 [mEh]      -0.65772557 [kcal/mol]      -2.75192378 [kJ/mol]
      Disp20                       -1.01945413 [mEh]      -0.63971712 [kcal/mol]      -2.67657644 [kJ/mol]
      Disp21                       -0.05385459 [mEh]      -0.03379426 [kcal/mol]      -0.14139520 [kJ/mol]
      Disp22 (SDQ)                 -0.01795685 [mEh]      -0.01126810 [kcal/mol]      -0.04714571 [kJ/mol]
      Disp22 (T)                   -0.05406145 [mEh]      -0.03392407 [kcal/mol]      -0.14193832 [kJ/mol]
      Est. Disp22 (T)              -0.06887953 [mEh]      -0.04322256 [kcal/mol]      -0.18084318 [kJ/mol]
      Exch-Disp20                   0.11199269 [mEh]       0.07027647 [kcal/mol]       0.29403676 [kJ/mol]

  Total HF                        -30.65399547 [mEh]     -19.23567257 [kcal/mol]     -80.48205402 [kJ/mol]
  Total SAPT0                     -31.56145691 [mEh]     -19.80511322 [kcal/mol]     -82.86459371 [kJ/mol]
  Total SAPT2                     -29.69238580 [mEh]     -18.63225339 [kcal/mol]     -77.95734819 [kJ/mol]
  Total SAPT2+                    -29.83307678 [mEh]     -18.72053831 [kcal/mol]     -78.32673229 [kJ/mol]

  Special recipe for scaled SAPT0 (see Manual):
    Electrostatics sSAPT0         -31.67399359 [mEh]     -19.87573105 [kcal/mol]     -83.16005872 [kJ/mol]
    Exchange sSAPT0                21.92787763 [mEh]      13.75995096 [kcal/mol]      57.57163480 [kJ/mol]
    Induction sSAPT0              -20.62543507 [mEh]     -12.94265591 [kcal/mol]     -54.15207232 [kJ/mol]
    Dispersion sSAPT0              -0.90553272 [mEh]      -0.56823036 [kcal/mol]      -2.37747582 [kJ/mol]
  Total sSAPT0                    -31.27708375 [mEh]     -19.62666636 [kcal/mol]     -82.11797207 [kJ/mol]
  --------------------------------------------------------------------------------------------------------

*** Psi4 exiting successfully. Buy a developer a beer!
