                               Psi4 1.9 release

  ==> Input File <==

--------------------------------------------------------------------------
MEMORY 60 GB

molecule dimer {
0 1
O      0.000000     0.000000     0.000000
H     -0.260198     0.889835     0.260198
H     -0.539942    -0.586632     0.539942
--
1 1
Li     1.828878     0.000000     0.000000

units ang
no_reorient
no_com
symmetry c1
}

set {
basis        aug-cc-pVTZ
scf_type     df
}

energy("sapt2+")
--------------------------------------------------------------------------

  //              Dimer HF             //
    Molecular point group: c1
  Charge       = 1
  Multiplicity = 1
  Basis Set: AUG-CC-PVTZ
    Blend: AUG-CC-PVTZ
  Basis Set: (AUG-CC-PVTZ AUX)
    Blend: AUG-CC-PVTZ-JKFIT + DEF2-UNIVERSAL-JKFIT
  @DF-RHF Final Energy:   -83.34720331347125
    Total Energy =                        -83.3472033134712404
 Dipole X            :         -6.3709920            8.8561901            2.4851981
 Dipole Y            :         -0.3613036            0.5729706            0.2116670
 Dipole Z            :         -0.9305213            1.5120455            0.5815241
 Magnitude           :                                                    2.5610902
  //            Monomer A HF           //
    Molecular point group: c1
  Multiplicity = 1
  Basis Set: AUG-CC-PVTZ
    Blend: AUG-CC-PVTZ
  Basis Set: (AUG-CC-PVTZ AUX)
    Blend: AUG-CC-PVTZ-JKFIT + DEF2-UNIVERSAL-JKFIT
  @DF-RHF Final Energy:   -76.06026764817435
    Total Energy =                        -76.0602676481743458
  //            Monomer B HF           //
    Molecular point group: c1

    Geometry (in Angstrom), charge = 1, multiplicity = 1:

       Center              X                  Y                   Z               Mass
    ------------   -----------------  -----------------  -----------------  -----------------
      Gh(O)           0.000000000000     0.000000000000     0.000000000000    15.994914619570
      Gh(H)          -0.260198000000     0.889835000000     0.260198000000     1.007825032230
      Gh(H)          -0.539942000000    -0.586632000000     0.539942000000     1.007825032230
         LI           1.828878000000     0.000000000000     0.000000000000     7.016003436600

  Charge       = 1
  Multiplicity = 1
  Basis Set: AUG-CC-PVTZ
    Blend: AUG-CC-PVTZ
  Basis Set: (AUG-CC-PVTZ AUX)
    Blend: AUG-CC-PVTZ-JKFIT + DEF2-UNIVERSAL-JKFIT

    Orbital Energies [Eh]
    ---------------------

    Doubly Occupied:

       1A     -2.792368

  @DF-RHF Final Energy:    -7.23638355159814

   => Energetics <=

    Nuclear Repulsion Energy =              0.0000000000000000
    One-Electron Energy =                  -8.8880315821565823
    Two-Electron Energy =                   1.6516480305584422
    Total Energy =                         -7.2363835515981396
 Dipole X            :         -6.9121739           10.3682356            3.4560617
 Dipole Y            :          0.0000052            0.0000000            0.0000052
 Dipole Z            :          0.0000219            0.0000000            0.0000219
 Magnitude           :                                                    3.4560617

    SAPT Results
  --------------------------------------------------------------------------------------------------------
    Electrostatics                -50.31659554 [mEh]     -31.57414039 [kcal/mol]    -132.10620338 [kJ/mol]
      Elst10,r                    -53.14430251 [mEh]     -33.34855330 [kcal/mol]    -139.53034703 [kJ/mol]
      Elst12,r                      2.82770698 [mEh]       1.77441292 [kcal/mol]       7.42414364 [kJ/mol]

    Exchange                       24.63954545 [mEh]      15.46154820 [kcal/mol]      64.69111768 [kJ/mol]
      Exch10                       22.96033745 [mEh]      14.40782927 [kcal/mol]      60.28235766 [kJ/mol]
      Exch10(S^2)                  22.82417704 [mEh]      14.32238732 [kcal/mol]      59.92486855 [kJ/mol]
      Exch11(S^2)                  -0.06561051 [mEh]      -0.04117122 [kcal/mol]      -0.17226038 [kJ/mol]
      Exch12(S^2)                   1.74481852 [mEh]       1.09489015 [kcal/mol]       4.58102039 [kJ/mol]

    Induction                     -22.02390158 [mEh]     -13.82020689 [kcal/mol]     -57.82374562 [kJ/mol]
      Ind20,r                     -35.92423768 [mEh]     -22.54279948 [kcal/mol]     -94.31907303 [kJ/mol]
      Ind22                        -3.19291774 [mEh]      -2.00358613 [kcal/mol]      -8.38300436 [kJ/mol]
      Exch-Ind20,r                 17.29498782 [mEh]      10.85276870 [kcal/mol]      45.40798425 [kJ/mol]
      Exch-Ind22                    1.53716479 [mEh]       0.96458547 [kcal/mol]       4.03582561 [kJ/mol]
      delta HF,r (2)               -1.73889877 [mEh]      -1.09117545 [kcal/mol]      -4.56547809 [kJ/mol]

    Dispersion                     -0.98836392 [mEh]      -0.62020772 [kcal/mol]      -2.59494912 [kJ/mol]
      Disp20                       -0.97139861 [mEh]      -0.60956183 [kcal/mol]      -2.55040671 [kJ/mol]
      Disp21                       -0.05199979 [mEh]      -0.03263036 [kcal/mol]      -0.13652544 [kJ/mol]
      Disp22 (SDQ)                 -0.01707269 [mEh]      -0.01071327 [kcal/mol]      -0.04482433 [kJ/mol]
      Disp22 (T)                   -0.05108712 [mEh]      -0.03205765 [kcal/mol]      -0.13412923 [kJ/mol]
      Est. Disp22 (T)              -0.06479943 [mEh]      -0.04066226 [kcal/mol]      -0.17013089 [kJ/mol]
      Exch-Disp20                   0.11690661 [mEh]       0.07336000 [kcal/mol]       0.30693825 [kJ/mol]

  Total HF                        -50.55211370 [mEh]     -31.72193027 [kcal/mol]    -132.72455623 [kJ/mol]
  Total SAPT0                     -51.40660571 [mEh]     -32.25813210 [kcal/mol]    -134.96802469 [kJ/mol]
  Total SAPT2                     -48.55544367 [mEh]     -30.46900091 [kcal/mol]    -127.48229979 [kJ/mol]
  Total SAPT2+                    -48.68931558 [mEh]     -30.55300680 [kcal/mol]    -127.83378045 [kJ/mol]

  Special recipe for scaled SAPT0 (see Manual):
    Electrostatics sSAPT0         -53.14430251 [mEh]     -33.34855330 [kcal/mol]    -139.53034703 [kJ/mol]
    Exchange sSAPT0                22.96033745 [mEh]      14.40782927 [kcal/mol]      60.28235766 [kJ/mol]
    Induction sSAPT0              -20.05677237 [mEh]     -12.58581467 [kcal/mol]     -52.65904860 [kJ/mol]
    Dispersion sSAPT0              -0.85238724 [mEh]      -0.53488107 [kcal/mol]      -2.23794239 [kJ/mol]
  Total sSAPT0                    -51.09312468 [mEh]     -32.06141978 [kcal/mol]    -134.14498035 [kJ/mol]
  --------------------------------------------------------------------------------------------------------

*** Psi4 exiting successfully. Buy a developer a beer!
