                               Psi4 1.9 release

  ==> Input File <==

--------------------------------------------------------------------------
MEMORY 60 GB

molecule dimer {
0 1
O      0.000000     0.000000     0.000000
H     -0.414183     0.764276     0.414183
H     -0.414183    -0.764276     0.414183
--
1 1
Li     1.828878     0.000000     0.000000

units ang
no_reorient
no_com
symmetry c1
}

set {
basis        aug-cc-pVTZ
scf_type     df
}

energy("sapt2+")
--------------------------------------------------------------------------

  //              Dimer HF             //
    Molecular point group: c1
  Charge       = 1
  Multiplicity = 1
  Basis Set: AUG-CC-PVTZ
    Blend: AUG-CC-PVTZ
  Basis Set: (AUG-CC-PVTZ AUX)
    Blend: AUG-CC-PVTZ-JKFIT + DEF2-UNIVERSAL-JKFIT
  @DF-RHF Final Energy:   -83.34854511446903
    Total Energy =                        -83.3485451144690330
 Dipole X            :         -6.3359179            8.8028507            2.4669328
 Dipole Y            :         -0.0000000            0.0000000           -0.0000000
 Dipole Z            :         -0.9643614            1.5653849            0.6010234
 Magnitude           :                                                    2.5390917
  //            Monomer A HF           //
    Molecular point group: c1
  Multiplicity = 1
  Basis Set: AUG-CC-PVTZ
    Blend: AUG-CC-PVTZ
  Basis Set: (AUG-CC-PVTZ AUX)
    Blend: AUG-CC-PVTZ-JKFIT + DEF2-UNIVERSAL-JKFIT
  @DF-RHF Final Energy:   -76.06026748695032
    Total Energy =                        -76.0602674869503090
  //            Monomer B HF           //
    Molecular point group: c1

    Geometry (in Angstrom), charge = 1, multiplicity = 1:

       Center              X                  Y                   Z               Mass
    ------------   -----------------  -----------------  -----------------  -----------------
      Gh(O)           0.000000000000     0.000000000000     0.000000000000    15.994914619570
      Gh(H)          -0.414183000000     0.764276000000     0.414183000000     1.007825032230
      Gh(H)          -0.414183000000    -0.764276000000     0.414183000000     1.007825032230
         LI           1.828878000000     0.000000000000     0.000000000000     7.016003436600

  Charge       = 1
  Multiplicity = 1
  Basis Set: AUG-CC-PVTZ
    Blend: AUG-CC-PVTZ
  Basis Set: (AUG-CC-PVTZ AUX)
    Blend: AUG-CC-PVTZ-JKFIT + DEF2-UNIVERSAL-JKFIT

    Orbital Energies [Eh]
    ---------------------

    Doubly Occupied:

       1A     -2.792368

  @DF-RHF Final Energy:    -7.23638354204252

   => Energetics <=

    Nuclear Repulsion Energy =              0.0000000000000000
    One-Electron Energy =                  -8.8880318185675673
    Two-Electron Energy =                   1.6516482765250469
    Total Energy =                         -7.2363835420425202
 Dipole X            :         -6.9121729           10.3682356            3.4560627
 Dipole Y            :          0.0000000            0.0000000            0.0000000
 Dipole Z            :          0.0000239            0.0000000            0.0000239
 Magnitude           :                                                    3.4560627

    SAPT Results
  --------------------------------------------------------------------------------------------------------
    Electrostatics                -51.80346431 [mEh]     -32.50716463 [kcal/mol]    -136.00997681 [kJ/mol]
      Elst10,r                    -54.71122195 [mEh]     -34.33181010 [kcal/mol]    -143.64429344 [kJ/mol]
      Elst12,r                      2.90775764 [mEh]       1.82464547 [kcal/mol]       7.63431663 [kJ/mol]

    Exchange                       24.85249985 [mEh]      15.59517911 [kcal/mol]      65.25022938 [kJ/mol]
      Exch10                       23.18213195 [mEh]      14.54700742 [kcal/mol]      60.86467904 [kJ/mol]
      Exch10(S^2)                  23.04334666 [mEh]      14.45991834 [kcal/mol]      60.50029832 [kJ/mol]
      Exch11(S^2)                  -0.06232473 [mEh]      -0.03910936 [kcal/mol]      -0.16363355 [kJ/mol]
      Exch12(S^2)                   1.73269264 [mEh]       1.08728104 [kcal/mol]       4.54918389 [kJ/mol]

    Induction                     -22.00933320 [mEh]     -13.81106509 [kcal/mol]     -57.78549634 [kJ/mol]
      Ind20,r                     -36.07494631 [mEh]     -22.63737057 [kcal/mol]     -94.71475848 [kJ/mol]
      Ind22                        -3.18374659 [mEh]      -1.99783115 [kcal/mol]      -8.35892553 [kJ/mol]
      Exch-Ind20,r                 17.44300015 [mEh]      10.94564785 [kcal/mol]      45.79659059 [kJ/mol]
      Exch-Ind22                    1.53940887 [mEh]       0.96599365 [kcal/mol]       4.04171743 [kJ/mol]
      delta HF,r (2)               -1.73304932 [mEh]      -1.08750486 [kcal/mol]      -4.55012035 [kJ/mol]

    Dispersion                     -0.98686510 [mEh]      -0.61926720 [kcal/mol]      -2.59101396 [kJ/mol]
      Disp20                       -0.97105979 [mEh]      -0.60934922 [kcal/mol]      -2.54951713 [kJ/mol]
      Disp21                       -0.05230404 [mEh]      -0.03282128 [kcal/mol]      -0.13732424 [kJ/mol]
      Disp22 (SDQ)                 -0.01692911 [mEh]      -0.01062318 [kcal/mol]      -0.04444737 [kJ/mol]
      Disp22 (T)                   -0.05111364 [mEh]      -0.03207429 [kcal/mol]      -0.13419884 [kJ/mol]
      Est. Disp22 (T)              -0.06468078 [mEh]      -0.04058780 [kcal/mol]      -0.16981937 [kJ/mol]
      Exch-Disp20                   0.11810863 [mEh]       0.07411428 [kcal/mol]       0.31009416 [kJ/mol]

  Total HF                        -51.89408548 [mEh]     -32.56403027 [kcal/mol]    -136.24790265 [kJ/mol]
  Total SAPT0                     -52.74703664 [mEh]     -33.09926521 [kcal/mol]    -138.48732562 [kJ/mol]
  Total SAPT2                     -49.81324882 [mEh]     -31.25828555 [kcal/mol]    -130.78466675 [kJ/mol]
  Total SAPT2+                    -49.94716275 [mEh]     -31.34231781 [kcal/mol]    -131.13625773 [kJ/mol]

  Special recipe for scaled SAPT0 (see Manual):
    Electrostatics sSAPT0         -54.71122195 [mEh]     -34.33181010 [kcal/mol]    -143.64429344 [kJ/mol]
    Exchange sSAPT0                23.18213195 [mEh]      14.54700742 [kcal/mol]      60.86467904 [kJ/mol]
    Induction sSAPT0              -20.04792679 [mEh]     -12.58026399 [kcal/mol]     -52.63582453 [kJ/mol]
    Dispersion sSAPT0              -0.85080426 [mEh]      -0.53388773 [kcal/mol]      -2.23378627 [kJ/mol]
  Total sSAPT0                    -52.42782105 [mEh]     -32.89895440 [kcal/mol]    -137.64922520 [kJ/mol]
  --------------------------------------------------------------------------------------------------------

*** Psi4 exiting successfully. Buy a developer a beer!
