                               Psi4 1.9 release

  ==> Input File <==

--------------------------------------------------------------------------
MEMORY 60 GB

molecule dimer {
0 1
O      0.000000     0.000000     0.000000
H     -0.628905     0.369011     0.628905
H     -0.088480    -0.954754     0.088480
--
1 1
Li     1.828878     0.000000     0.000000

units ang
no_reorient
no_com
symmetry c1
}

set {
basis        aug-cc-pVTZ
scf_type     df
}

energy("sapt2+")
--------------------------------------------------------------------------

  //              Dimer HF             //
    Molecular point group: c1
  Charge       = 1
  Multiplicity = 1
  Basis Set: AUG-CC-PVTZ
    Blend: AUG-CC-PVTZ
  Basis Set: (AUG-CC-PVTZ AUX)
    Blend: AUG-CC-PVTZ-JKFIT + DEF2-UNIVERSAL-JKFIT
  @DF-RHF Final Energy:   -83.34320177993493
    Total Energy =                        -83.3432017799349296
 Dipole X            :         -6.4741242            9.0125744            2.5384502
 Dipole Y            :          0.6987619           -1.1068938           -0.4081319
 Dipole Z            :         -0.8310854            1.3556612            0.5245758
 Magnitude           :                                                    2.6240200
  //            Monomer A HF           //
    Molecular point group: c1
  Multiplicity = 1
  Basis Set: AUG-CC-PVTZ
    Blend: AUG-CC-PVTZ
  Basis Set: (AUG-CC-PVTZ AUX)
    Blend: AUG-CC-PVTZ-JKFIT + DEF2-UNIVERSAL-JKFIT
  @DF-RHF Final Energy:   -76.06026786324705
    Total Energy =                        -76.0602678632470486
  //            Monomer B HF           //
    Molecular point group: c1

    Geometry (in Angstrom), charge = 1, multiplicity = 1:

       Center              X                  Y                   Z               Mass
    ------------   -----------------  -----------------  -----------------  -----------------
      Gh(O)           0.000000000000     0.000000000000     0.000000000000    15.994914619570
      Gh(H)          -0.628905000000     0.369011000000     0.628905000000     1.007825032230
      Gh(H)          -0.088480000000    -0.954754000000     0.088480000000     1.007825032230
         LI           1.828878000000     0.000000000000     0.000000000000     7.016003436600

  Charge       = 1
  Multiplicity = 1
  Basis Set: AUG-CC-PVTZ
    Blend: AUG-CC-PVTZ
  Basis Set: (AUG-CC-PVTZ AUX)
    Blend: AUG-CC-PVTZ-JKFIT + DEF2-UNIVERSAL-JKFIT

    Orbital Energies [Eh]
    ---------------------

    Doubly Occupied:

       1A     -2.792368

  @DF-RHF Final Energy:    -7.23638356309151

   => Energetics <=

    Nuclear Repulsion Energy =              0.0000000000000000
    One-Electron Energy =                  -8.8880312317917287
    Two-Electron Energy =                   1.6516476687002235
    Total Energy =                         -7.2363835630915050
 Dipole X            :         -6.9121765           10.3682356            3.4560591
 Dipole Y            :         -0.0000082            0.0000000           -0.0000082
 Dipole Z            :          0.0000169            0.0000000            0.0000169
 Magnitude           :                                                    3.4560591

    SAPT Results
  --------------------------------------------------------------------------------------------------------
    Electrostatics                -45.95636377 [mEh]     -28.83805365 [kcal/mol]    -120.65841646 [kJ/mol]
      Elst10,r                    -48.56107502 [mEh]     -30.47253463 [kcal/mol]    -127.49708490 [kJ/mol]
      Elst12,r                      2.60471125 [mEh]       1.63448098 [kcal/mol]       6.83866844 [kJ/mol]

    Exchange                       24.11032595 [mEh]      15.12945795 [kcal/mol]      63.30165206 [kJ/mol]
      Exch10                       22.40755002 [mEh]      14.06094992 [kcal/mol]      58.83101446 [kJ/mol]
      Exch10(S^2)                  22.27780696 [mEh]      13.97953492 [kcal/mol]      58.49037410 [kJ/mol]
      Exch11(S^2)                  -0.07544686 [mEh]      -0.04734362 [kcal/mol]      -0.19808570 [kJ/mol]
      Exch12(S^2)                   1.77822279 [mEh]       1.11585165 [kcal/mol]       4.66872329 [kJ/mol]

    Induction                     -22.08563349 [mEh]     -13.85894425 [kcal/mol]     -57.98582273 [kJ/mol]
      Ind20,r                     -35.54419547 [mEh]     -22.30431940 [kcal/mol]     -93.32127236 [kJ/mol]
      Ind22                        -3.22147119 [mEh]      -2.02150369 [kcal/mol]      -8.45797144 [kJ/mol]
      Exch-Ind20,r                 16.91071787 [mEh]      10.61163567 [kcal/mol]      44.39908364 [kJ/mol]
      Exch-Ind22                    1.53266629 [mEh]       0.96176262 [kcal/mol]       4.02401480 [kJ/mol]
      delta HF,r (2)               -1.76335099 [mEh]      -1.10651945 [kcal/mol]      -4.62967738 [kJ/mol]

    Dispersion                     -0.99434959 [mEh]      -0.62396379 [kcal/mol]      -2.61066450 [kJ/mol]
      Disp20                       -0.97448198 [mEh]      -0.61149667 [kcal/mol]      -2.55850208 [kJ/mol]
      Disp21                       -0.05140124 [mEh]      -0.03225477 [kcal/mol]      -0.13495394 [kJ/mol]
      Disp22 (SDQ)                 -0.01742019 [mEh]      -0.01093133 [kcal/mol]      -0.04573670 [kJ/mol]
      Disp22 (T)                   -0.05126134 [mEh]      -0.03216697 [kcal/mol]      -0.13458662 [kJ/mol]
      Est. Disp22 (T)              -0.06525438 [mEh]      -0.04094774 [kcal/mol]      -0.17132535 [kJ/mol]
      Exch-Disp20                   0.11420819 [mEh]       0.07166672 [kcal/mol]       0.29985357 [kJ/mol]

  Total HF                        -46.55035360 [mEh]     -29.21078789 [kcal/mol]    -122.21793653 [kJ/mol]
  Total SAPT0                     -47.41062738 [mEh]     -29.75061784 [kcal/mol]    -124.47658504 [kJ/mol]
  Total SAPT2                     -44.79194509 [mEh]     -28.10736990 [kcal/mol]    -117.60123564 [kJ/mol]
  Total SAPT2+                    -44.92602090 [mEh]     -28.19150374 [kcal/mol]    -117.95325163 [kJ/mol]

  Special recipe for scaled SAPT0 (see Manual):
    Electrostatics sSAPT0         -48.56107502 [mEh]     -30.47253463 [kcal/mol]    -127.49708490 [kJ/mol]
    Exchange sSAPT0                22.40755002 [mEh]      14.06094992 [kcal/mol]      58.83101446 [kJ/mol]
    Induction sSAPT0              -20.09964706 [mEh]     -12.61271895 [kcal/mol]     -52.77161608 [kJ/mol]
    Dispersion sSAPT0              -0.85826674 [mEh]      -0.53857051 [kcal/mol]      -2.25337902 [kJ/mol]
  Total sSAPT0                    -47.11143880 [mEh]     -29.56287417 [kcal/mol]    -123.69106553 [kJ/mol]
  --------------------------------------------------------------------------------------------------------

*** Psi4 exiting successfully. Buy a developer a beer!
