                               Psi4 1.9 release

  ==> Input File <==

--------------------------------------------------------------------------
MEMORY 60 GB

molecule dimer {
0 1
O      0.000000     0.000000     0.000000
H     -0.673660    -0.129007     0.673660
H      0.257830    -0.889565    -0.257830
--
1 1
Na     2.158940     0.000000     0.000000

units ang
no_reorient
no_com
symmetry c1
}

set {
basis        aug-cc-pVTZ
scf_type     df
}

energy("sapt2+")
--------------------------------------------------------------------------

  //              Dimer HF             //
    Molecular point group: c1
  Charge       = 1
  Multiplicity = 1
  Basis Set: AUG-CC-PVTZ
    Blend: AUG-CC-PVTZ
  Basis Set: (AUG-CC-PVTZ AUX)
    Blend: AUG-CC-PVTZ-JKFIT + DEF2-UNIVERSAL-JKFIT
  @DF-RHF Final Energy:  -237.75315491172967
    Total Energy =                       -237.7531549117296663
 Dipole X            :        -40.6275185           44.0920537            3.4645352
 Dipole Y            :          1.2357256           -1.9248221           -0.6890965
 Dipole Z            :         -0.4758085            0.7858048            0.3099963
 Magnitude           :                                                    3.5459774
  //            Monomer A HF           //
    Molecular point group: c1
  Multiplicity = 1
  Basis Set: AUG-CC-PVTZ
    Blend: AUG-CC-PVTZ
  Basis Set: (AUG-CC-PVTZ AUX)
    Blend: AUG-CC-PVTZ-JKFIT + DEF2-UNIVERSAL-JKFIT
  @DF-RHF Final Energy:   -76.06037946783236
    Total Energy =                        -76.0603794678323624
  //            Monomer B HF           //
    Molecular point group: c1

    Geometry (in Angstrom), charge = 1, multiplicity = 1:

       Center              X                  Y                   Z               Mass
    ------------   -----------------  -----------------  -----------------  -----------------
      Gh(O)           0.000000000000     0.000000000000     0.000000000000    15.994914619570
      Gh(H)          -0.673660000000    -0.129007000000     0.673660000000     1.007825032230
      Gh(H)           0.257830000000    -0.889565000000    -0.257830000000     1.007825032230
         NA           2.158940000000     0.000000000000     0.000000000000    22.989769282000

  Charge       = 1
  Multiplicity = 1
  Basis Set: AUG-CC-PVTZ
    Blend: AUG-CC-PVTZ
  Basis Set: (AUG-CC-PVTZ AUX)
    Blend: AUG-CC-PVTZ-JKFIT + DEF2-UNIVERSAL-JKFIT

    Orbital Energies [Eh]
    ---------------------

    Doubly Occupied:

       1A    -40.762709     2A     -3.074859     3A     -1.798152
       4A     -1.798045     5A     -1.798003

  @DF-RHF Final Energy:  -161.67604550297463

   => Energetics <=

    Nuclear Repulsion Energy =              0.0000000000000000
    One-Electron Energy =                -224.8885522840228930
    Two-Electron Energy =                  63.2125067810482761
    Total Energy =                       -161.6760455029746026
 Dipole X            :        -40.7986883           44.8778585            4.0791702
 Dipole Y            :         -0.0001170            0.0000000           -0.0001170
 Dipole Z            :          0.0000077            0.0000000            0.0000077
 Magnitude           :                                                    4.0791702

    SAPT Results
  --------------------------------------------------------------------------------------------------------
    Electrostatics                -25.45059574 [mEh]     -15.97048994 [kcal/mol]     -66.82052991 [kJ/mol]
      Elst10,r                    -25.92955052 [mEh]     -16.27103860 [kcal/mol]     -68.07802552 [kJ/mol]
      Elst12,r                      0.47895478 [mEh]       0.30054866 [kcal/mol]       1.25749560 [kJ/mol]

    Exchange                       20.95001652 [mEh]      13.14633384 [kcal/mol]      55.00426081 [kJ/mol]
      Exch10                       18.98267158 [mEh]      11.91180625 [kcal/mol]      49.83899736 [kJ/mol]
      Exch10(S^2)                  18.88523654 [mEh]      11.85066484 [kcal/mol]      49.58318170 [kJ/mol]
      Exch11(S^2)                  -0.19251577 [mEh]      -0.12080547 [kcal/mol]      -0.50545009 [kJ/mol]
      Exch12(S^2)                   2.15986072 [mEh]       1.35533306 [kcal/mol]       5.67071354 [kJ/mol]

    Induction                     -11.32710762 [mEh]      -7.10786734 [kcal/mol]     -29.73931696 [kJ/mol]
      Ind20,r                     -31.11183188 [mEh]     -19.52296925 [kcal/mol]     -81.68410334 [kJ/mol]
      Ind22                        -4.22505227 [mEh]      -2.65126033 [kcal/mol]     -11.09287321 [kJ/mol]
      Exch-Ind20,r                 19.74201079 [mEh]      12.38829880 [kcal/mol]      51.83264220 [kJ/mol]
      Exch-Ind22                    2.68100663 [mEh]       1.68235706 [kcal/mol]       7.03898194 [kJ/mol]
      delta HF,r (2)                1.58675911 [mEh]       0.99570637 [kcal/mol]       4.16603546 [kJ/mol]

    Dispersion                     -0.96112109 [mEh]      -0.60311259 [kcal/mol]      -2.52342306 [kJ/mol]
      Disp20                       -0.98567587 [mEh]      -0.61852095 [kcal/mol]      -2.58789164 [kJ/mol]
      Disp21                       -0.03702507 [mEh]      -0.02323358 [kcal/mol]      -0.09720930 [kJ/mol]
      Disp22 (SDQ)                 -0.05418802 [mEh]      -0.03400349 [kcal/mol]      -0.14227062 [kJ/mol]
      Disp22 (T)                   -0.07155338 [mEh]      -0.04490043 [kcal/mol]      -0.18786338 [kJ/mol]
      Est. Disp22 (T)              -0.08801516 [mEh]      -0.05523035 [kcal/mol]      -0.23108378 [kJ/mol]
      Exch-Disp20                   0.20378303 [mEh]       0.12787578 [kcal/mol]       0.53503227 [kJ/mol]

  Total HF                        -16.72994092 [mEh]     -10.49819642 [kcal/mol]     -43.92445384 [kJ/mol]
  Total SAPT0                     -17.51183376 [mEh]     -10.98884159 [kcal/mol]     -45.97731321 [kJ/mol]
  Total SAPT2                     -16.60957968 [mEh]     -10.42266860 [kcal/mol]     -43.60844543 [kJ/mol]
  Total SAPT2+                    -16.78880792 [mEh]     -10.53513602 [kcal/mol]     -44.07900913 [kJ/mol]

  Special recipe for scaled SAPT0 (see Manual):
    Electrostatics sSAPT0         -25.92955052 [mEh]     -16.27103860 [kcal/mol]     -68.07802552 [kJ/mol]
    Exchange sSAPT0                18.98267158 [mEh]      11.91180625 [kcal/mol]      49.83899736 [kJ/mol]
    Induction sSAPT0               -9.47591650 [mEh]      -5.94622738 [kcal/mol]     -24.87901534 [kJ/mol]
    Dispersion sSAPT0              -0.77872239 [mEh]      -0.48865568 [kcal/mol]      -2.04453536 [kJ/mol]
  Total sSAPT0                    -17.20151784 [mEh]     -10.79411541 [kcal/mol]     -45.16257886 [kJ/mol]
  --------------------------------------------------------------------------------------------------------

*** Psi4 exiting successfully. Buy a developer a beer!
