                               Psi4 1.9 release

  ==> Input File <==

--------------------------------------------------------------------------
MEMORY 60 GB

molecule dimer {
0 1
O      0.000000     0.000000     0.000000
H     -0.674315     0.121965     0.674315
H      0.086242    -0.953626    -0.086242
--
1 1
Na     2.158940     0.000000     0.000000

units ang
no_reorient
no_com
symmetry c1
}

set {
basis        aug-cc-pVTZ
scf_type     df
}

energy("sapt2+")
--------------------------------------------------------------------------

  //              Dimer HF             //
    Molecular point group: c1
  Charge       = 1
  Multiplicity = 1
  Basis Set: AUG-CC-PVTZ
    Blend: AUG-CC-PVTZ
  Basis Set: (AUG-CC-PVTZ AUX)
    Blend: AUG-CC-PVTZ-JKFIT + DEF2-UNIVERSAL-JKFIT
  @DF-RHF Final Energy:  -237.76046853546626
    Total Energy =                       -237.7604685354662593
 Dipole X            :        -40.4128618           43.7665616            3.3536998
 Dipole Y            :          1.0070770           -1.5716115           -0.5645345
 Dipole Z            :         -0.6879694            1.1112969            0.4233275
 Magnitude           :                                                    3.4271282
  //            Monomer A HF           //
    Molecular point group: c1
  Multiplicity = 1
  Basis Set: AUG-CC-PVTZ
    Blend: AUG-CC-PVTZ
  Basis Set: (AUG-CC-PVTZ AUX)
    Blend: AUG-CC-PVTZ-JKFIT + DEF2-UNIVERSAL-JKFIT
  @DF-RHF Final Energy:   -76.06037918585650
    Total Energy =                        -76.0603791858565046
  //            Monomer B HF           //
    Molecular point group: c1

    Geometry (in Angstrom), charge = 1, multiplicity = 1:

       Center              X                  Y                   Z               Mass
    ------------   -----------------  -----------------  -----------------  -----------------
      Gh(O)           0.000000000000     0.000000000000     0.000000000000    15.994914619570
      Gh(H)          -0.674315000000     0.121965000000     0.674315000000     1.007825032230
      Gh(H)           0.086242000000    -0.953626000000    -0.086242000000     1.007825032230
         NA           2.158940000000     0.000000000000     0.000000000000    22.989769282000

  Charge       = 1
  Multiplicity = 1
  Basis Set: AUG-CC-PVTZ
    Blend: AUG-CC-PVTZ
  Basis Set: (AUG-CC-PVTZ AUX)
    Blend: AUG-CC-PVTZ-JKFIT + DEF2-UNIVERSAL-JKFIT

    Orbital Energies [Eh]
    ---------------------

    Doubly Occupied:

       1A    -40.762685     2A     -3.074852     3A     -1.798151
       4A     -1.798034     5A     -1.797999

  @DF-RHF Final Energy:  -161.67604452755987

   => Energetics <=

    Nuclear Repulsion Energy =              0.0000000000000000
    One-Electron Energy =                -224.8886482030502805
    Two-Electron Energy =                  63.2126036754904135
    Total Energy =                       -161.6760445275598670
 Dipole X            :        -40.7986829           44.8778585            4.0791756
 Dipole Y            :         -0.0000862            0.0000000           -0.0000862
 Dipole Z            :          0.0000429            0.0000000            0.0000429
 Magnitude           :                                                    4.0791756

    SAPT Results
  --------------------------------------------------------------------------------------------------------
    Electrostatics                -32.38925928 [mEh]     -20.32456705 [kcal/mol]     -85.03798852 [kJ/mol]
      Elst10,r                    -33.21009728 [mEh]     -20.83965067 [kcal/mol]     -87.19309839 [kJ/mol]
      Elst12,r                      0.82083800 [mEh]       0.51508362 [kcal/mol]       2.15510987 [kJ/mol]

    Exchange                       20.65237550 [mEh]      12.95956128 [kcal/mol]      54.22280441 [kJ/mol]
      Exch10                       18.75948857 [mEh]      11.77175680 [kcal/mol]      49.25303045 [kJ/mol]
      Exch10(S^2)                  18.66203595 [mEh]      11.71060436 [kcal/mol]      48.99716864 [kJ/mol]
      Exch11(S^2)                  -0.17370153 [mEh]      -0.10899936 [kcal/mol]      -0.45605330 [kJ/mol]
      Exch12(S^2)                   2.06658847 [mEh]       1.29680384 [kcal/mol]       5.42582727 [kJ/mol]

    Induction                     -11.07788947 [mEh]      -6.95148059 [kcal/mol]     -29.08499479 [kJ/mol]
      Ind20,r                     -30.97666427 [mEh]     -19.43815030 [kcal/mol]     -81.32922084 [kJ/mol]
      Ind22                        -4.07759065 [mEh]      -2.55872676 [kcal/mol]     -10.70571278 [kJ/mol]
      Exch-Ind20,r                 19.70546485 [mEh]      12.36536588 [kcal/mol]      51.73669083 [kJ/mol]
      Exch-Ind22                    2.59391452 [mEh]       1.62770594 [kcal/mol]       6.81032163 [kJ/mol]
      delta HF,r (2)                1.67698609 [mEh]       1.05232466 [kcal/mol]       4.40292636 [kJ/mol]

    Dispersion                     -0.91742685 [mEh]      -0.57569404 [kcal/mol]      -2.40870385 [kJ/mol]
      Disp20                       -0.94443960 [mEh]      -0.59264480 [kcal/mol]      -2.47962582 [kJ/mol]
      Disp21                       -0.03371178 [mEh]      -0.02115446 [kcal/mol]      -0.08851026 [kJ/mol]
      Disp22 (SDQ)                 -0.05265761 [mEh]      -0.03304315 [kcal/mol]      -0.13825253 [kJ/mol]
      Disp22 (T)                   -0.06584335 [mEh]      -0.04131732 [kcal/mol]      -0.17287168 [kJ/mol]
      Est. Disp22 (T)              -0.08470757 [mEh]      -0.05315480 [kcal/mol]      -0.22239969 [kJ/mol]
      Exch-Disp20                   0.19808971 [mEh]       0.12430317 [kcal/mol]       0.52008446 [kJ/mol]

  Total HF                        -24.04482205 [mEh]     -15.08835363 [kcal/mol]     -63.12967159 [kJ/mol]
  Total SAPT0                     -24.79117194 [mEh]     -15.55669526 [kcal/mol]     -65.08921296 [kJ/mol]
  Total SAPT2                     -23.56112313 [mEh]     -14.78482798 [kcal/mol]     -61.85972027 [kJ/mol]
  Total SAPT2+                    -23.73220009 [mEh]     -14.89218039 [kcal/mol]     -62.30888275 [kJ/mol]

  Special recipe for scaled SAPT0 (see Manual):
    Electrostatics sSAPT0         -33.21009728 [mEh]     -20.83965067 [kcal/mol]     -87.19309839 [kJ/mol]
    Exchange sSAPT0                18.75948857 [mEh]      11.77175680 [kcal/mol]      49.25303045 [kJ/mol]
    Induction sSAPT0               -9.28389438 [mEh]      -5.82573167 [kcal/mol]     -24.37486132 [kJ/mol]
    Dispersion sSAPT0              -0.74323040 [mEh]      -0.46638412 [kcal/mol]      -1.95135115 [kJ/mol]
  Total sSAPT0                    -24.47773349 [mEh]     -15.36000966 [kcal/mol]     -64.26628042 [kJ/mol]
  --------------------------------------------------------------------------------------------------------

*** Psi4 exiting successfully. Buy a developer a beer!
