                               Psi4 1.9 release

  ==> Input File <==

--------------------------------------------------------------------------
MEMORY 60 GB

molecule dimer {
0 1
O      0.000000     0.000000     0.000000
H     -0.540853     0.582438     0.540853
H     -0.262470    -0.886847     0.262470
--
1 1
Na     2.158940     0.000000     0.000000

units ang
no_reorient
no_com
symmetry c1
}

set {
basis        aug-cc-pVTZ
scf_type     df
}

energy("sapt2+")
--------------------------------------------------------------------------

  //              Dimer HF             //
    Molecular point group: c1
  Charge       = 1
  Multiplicity = 1
  Basis Set: AUG-CC-PVTZ
    Blend: AUG-CC-PVTZ
  Basis Set: (AUG-CC-PVTZ AUX)
    Blend: AUG-CC-PVTZ-JKFIT + DEF2-UNIVERSAL-JKFIT
  @DF-RHF Final Energy:  -237.76876022812971
    Total Energy =                       -237.7687602281297075
 Dipole X            :        -40.1464206           43.3597981            3.2133775
 Dipole Y            :          0.3674811           -0.5752496           -0.2077686
 Dipole Z            :         -0.9502614            1.5180605            0.5677990
 Magnitude           :                                                    3.2697643
  //            Monomer A HF           //
    Molecular point group: c1
  Multiplicity = 1
  Basis Set: AUG-CC-PVTZ
    Blend: AUG-CC-PVTZ
  Basis Set: (AUG-CC-PVTZ AUX)
    Blend: AUG-CC-PVTZ-JKFIT + DEF2-UNIVERSAL-JKFIT
  @DF-RHF Final Energy:   -76.06037973824441
    Total Energy =                        -76.0603797382444071
  //            Monomer B HF           //
    Molecular point group: c1

    Geometry (in Angstrom), charge = 1, multiplicity = 1:

       Center              X                  Y                   Z               Mass
    ------------   -----------------  -----------------  -----------------  -----------------
      Gh(O)           0.000000000000     0.000000000000     0.000000000000    15.994914619570
      Gh(H)          -0.540853000000     0.582438000000     0.540853000000     1.007825032230
      Gh(H)          -0.262470000000    -0.886847000000     0.262470000000     1.007825032230
         NA           2.158940000000     0.000000000000     0.000000000000    22.989769282000

  Charge       = 1
  Multiplicity = 1
  Basis Set: AUG-CC-PVTZ
    Blend: AUG-CC-PVTZ
  Basis Set: (AUG-CC-PVTZ AUX)
    Blend: AUG-CC-PVTZ-JKFIT + DEF2-UNIVERSAL-JKFIT

    Orbital Energies [Eh]
    ---------------------

    Doubly Occupied:

       1A    -40.762582     2A     -3.074818     3A     -1.798137
       4A     -1.797994     5A     -1.797963

  @DF-RHF Final Energy:  -161.67604430295376

   => Energetics <=

    Nuclear Repulsion Energy =              0.0000000000000000
    One-Electron Energy =                -224.8891010016948826
    Two-Electron Energy =                  63.2130566987411413
    Total Energy =                       -161.6760443029537555
 Dipole X            :        -40.7986479           44.8778585            4.0792106
 Dipole Y            :         -0.0000294            0.0000000           -0.0000294
 Dipole Z            :          0.0000689            0.0000000            0.0000689
 Magnitude           :                                                    4.0792106

    SAPT Results
  --------------------------------------------------------------------------------------------------------
    Electrostatics                -41.06433593 [mEh]     -25.76825983 [kcal/mol]    -107.81439912 [kJ/mol]
      Elst10,r                    -42.30669182 [mEh]     -26.54784992 [kcal/mol]    -111.07620407 [kJ/mol]
      Elst12,r                      1.24235589 [mEh]       0.77959009 [kcal/mol]       3.26180494 [kJ/mol]

    Exchange                       21.28680689 [mEh]      13.35767299 [kcal/mol]      55.88850378 [kJ/mol]
      Exch10                       19.45255189 [mEh]      12.20666060 [kcal/mol]      51.07266796 [kJ/mol]
      Exch10(S^2)                  19.34504718 [mEh]      12.13920038 [kcal/mol]      50.79041438 [kJ/mol]
      Exch11(S^2)                  -0.15865922 [mEh]      -0.09956016 [kcal/mol]      -0.41655972 [kJ/mol]
      Exch12(S^2)                   1.99291421 [mEh]       1.25057255 [kcal/mol]       5.23239555 [kJ/mol]

    Induction                     -10.89591139 [mEh]      -6.83728762 [kcal/mol]     -28.60721140 [kJ/mol]
      Ind20,r                     -31.98937358 [mEh]     -20.07363498 [kcal/mol]     -83.98808876 [kJ/mol]
      Ind22                        -3.98785427 [mEh]      -2.50241633 [kcal/mol]     -10.47010993 [kJ/mol]
      Exch-Ind20,r                 20.64777660 [mEh]      12.95667543 [kcal/mol]      54.21073001 [kJ/mol]
      Exch-Ind22                    2.57398989 [mEh]       1.61520304 [kcal/mol]       6.75800951 [kJ/mol]
      delta HF,r (2)                1.85954997 [mEh]       1.16688522 [kcal/mol]       4.88224778 [kJ/mol]

    Dispersion                     -0.88249600 [mEh]      -0.55377460 [kcal/mol]      -2.31699292 [kJ/mol]
      Disp20                       -0.91627745 [mEh]      -0.57497278 [kcal/mol]      -2.40568612 [kJ/mol]
      Disp21                       -0.03275900 [mEh]      -0.02055658 [kcal/mol]      -0.08600873 [kJ/mol]
      Disp22 (SDQ)                 -0.05217167 [mEh]      -0.03273822 [kcal/mol]      -0.13697670 [kJ/mol]
      Disp22 (T)                   -0.06360319 [mEh]      -0.03991161 [kcal/mol]      -0.16699016 [kJ/mol]
      Est. Disp22 (T)              -0.08239206 [mEh]      -0.05170180 [kcal/mol]      -0.21632033 [kJ/mol]
      Exch-Disp20                   0.20110418 [mEh]       0.12619478 [kcal/mol]       0.52799896 [kJ/mol]

  Total HF                        -32.33618693 [mEh]     -20.29126365 [kcal/mol]     -84.89864709 [kJ/mol]
  Total SAPT0                     -33.05136020 [mEh]     -20.74004165 [kcal/mol]     -86.77633425 [kJ/mol]
  Total SAPT2                     -31.38861370 [mEh]     -19.69665246 [kcal/mol]     -82.41079390 [kJ/mol]
  Total SAPT2+                    -31.55593642 [mEh]     -19.80164906 [kcal/mol]     -82.85009966 [kJ/mol]

  Special recipe for scaled SAPT0 (see Manual):
    Electrostatics sSAPT0         -42.30669182 [mEh]     -26.54784992 [kcal/mol]    -111.07620407 [kJ/mol]
    Exchange sSAPT0                19.45255189 [mEh]      12.20666060 [kcal/mol]      51.07266796 [kJ/mol]
    Induction sSAPT0               -9.13589769 [mEh]      -5.73286235 [kcal/mol]     -23.98629608 [kJ/mol]
    Dispersion sSAPT0              -0.71180186 [mEh]      -0.44666241 [kcal/mol]      -1.86883553 [kJ/mol]
  Total sSAPT0                    -32.70183948 [mEh]     -20.52071408 [kcal/mol]     -85.85866772 [kJ/mol]
  --------------------------------------------------------------------------------------------------------

*** Psi4 exiting successfully. Buy a developer a beer!
