                               Psi4 1.9 release

  ==> Input File <==

--------------------------------------------------------------------------
MEMORY 60 GB

molecule dimer {
0 1
O      0.000000     0.000000     0.000000
H     -0.415830     0.760558     0.415830
H     -0.415830    -0.760558     0.415830
--
1 1
Na     2.158940     0.000000     0.000000

units ang
no_reorient
no_com
symmetry c1
}

set {
basis        aug-cc-pVTZ
scf_type     df
}

energy("sapt2+")
--------------------------------------------------------------------------

  //              Dimer HF             //
    Molecular point group: c1
  Charge       = 1
  Multiplicity = 1
  Basis Set: AUG-CC-PVTZ
    Blend: AUG-CC-PVTZ
  Basis Set: (AUG-CC-PVTZ AUX)
    Blend: AUG-CC-PVTZ-JKFIT + DEF2-UNIVERSAL-JKFIT
  @DF-RHF Final Energy:  -237.76979680469745
    Total Energy =                       -237.7697968046974495
 Dipole X            :        -40.1115296           43.3062489            3.1947193
 Dipole Y            :         -0.0000000            0.0000000           -0.0000000
 Dipole Z            :         -0.9845761            1.5716096            0.5870335
 Magnitude           :                                                    3.2482056
  //            Monomer A HF           //
    Molecular point group: c1
  Multiplicity = 1
  Basis Set: AUG-CC-PVTZ
    Blend: AUG-CC-PVTZ
  Basis Set: (AUG-CC-PVTZ AUX)
    Blend: AUG-CC-PVTZ-JKFIT + DEF2-UNIVERSAL-JKFIT
  @DF-RHF Final Energy:   -76.06037974631600
    Total Energy =                        -76.0603797463160021
  //            Monomer B HF           //
    Molecular point group: c1

    Geometry (in Angstrom), charge = 1, multiplicity = 1:

       Center              X                  Y                   Z               Mass
    ------------   -----------------  -----------------  -----------------  -----------------
      Gh(O)           0.000000000000     0.000000000000     0.000000000000    15.994914619570
      Gh(H)          -0.415830000000     0.760558000000     0.415830000000     1.007825032230
      Gh(H)          -0.415830000000    -0.760558000000     0.415830000000     1.007825032230
         NA           2.158940000000     0.000000000000     0.000000000000    22.989769282000

  Charge       = 1
  Multiplicity = 1
  Basis Set: AUG-CC-PVTZ
    Blend: AUG-CC-PVTZ
  Basis Set: (AUG-CC-PVTZ AUX)
    Blend: AUG-CC-PVTZ-JKFIT + DEF2-UNIVERSAL-JKFIT

    Orbital Energies [Eh]
    ---------------------

    Doubly Occupied:

       1A    -40.762581     2A     -3.074819     3A     -1.798141
       4A     -1.797993     5A     -1.797964

  @DF-RHF Final Energy:  -161.67604414609400

   => Energetics <=

    Nuclear Repulsion Energy =              0.0000000000000000
    One-Electron Energy =                -224.8890920350814326
    Two-Electron Energy =                  63.2130478889874183
    Total Energy =                       -161.6760441460940001
 Dipole X            :        -40.7986342           44.8778585            4.0792243
 Dipole Y            :         -0.0000000            0.0000000           -0.0000000
 Dipole Z            :          0.0000697            0.0000000            0.0000697
 Magnitude           :                                                    4.0792243

    SAPT Results
  --------------------------------------------------------------------------------------------------------
    Electrostatics                -42.20742946 [mEh]     -26.48556185 [kcal/mol]    -110.81559079 [kJ/mol]
      Elst10,r                    -43.50682837 [mEh]     -27.30094697 [kcal/mol]    -114.22716214 [kJ/mol]
      Elst12,r                      1.29939890 [mEh]       0.81538512 [kcal/mol]       3.41157135 [kJ/mol]

    Exchange                       21.43625982 [mEh]      13.45145612 [kcal/mol]      56.28089242 [kJ/mol]
      Exch10                       19.60902262 [mEh]      12.30484747 [kcal/mol]      51.48348180 [kJ/mol]
      Exch10(S^2)                  19.49946619 [mEh]      12.23609977 [kcal/mol]      51.19584144 [kJ/mol]
      Exch11(S^2)                  -0.15719406 [mEh]      -0.09864076 [kcal/mol]      -0.41271294 [kJ/mol]
      Exch12(S^2)                   1.98443126 [mEh]       1.24524942 [kcal/mol]       5.21012356 [kJ/mol]

    Induction                     -10.87994394 [mEh]      -6.82726790 [kcal/mol]     -28.56528889 [kJ/mol]
      Ind20,r                     -32.19556794 [mEh]     -20.20302389 [kcal/mol]     -84.52945197 [kJ/mol]
      Ind22                        -3.98025246 [mEh]      -2.49764613 [kcal/mol]     -10.45015140 [kJ/mol]
      Exch-Ind20,r                 20.83208323 [mEh]      13.07232958 [kcal/mol]      54.69462697 [kJ/mol]
      Exch-Ind22                    2.57541506 [mEh]       1.61609735 [kcal/mol]       6.76175131 [kJ/mol]
      delta HF,r (2)                1.88837817 [mEh]       1.18497519 [kcal/mol]       4.95793620 [kJ/mol]

    Dispersion                     -0.87845740 [mEh]      -0.55124034 [kcal/mol]      -2.30638959 [kJ/mol]
      Disp20                       -0.91325807 [mEh]      -0.57307809 [kcal/mol]      -2.39775874 [kJ/mol]
      Disp21                       -0.03282867 [mEh]      -0.02060030 [kcal/mol]      -0.08619166 [kJ/mol]
      Disp22 (SDQ)                 -0.05212809 [mEh]      -0.03271087 [kcal/mol]      -0.13686228 [kJ/mol]
      Disp22 (T)                   -0.06338766 [mEh]      -0.03977636 [kcal/mol]      -0.16642428 [kJ/mol]
      Est. Disp22 (T)              -0.08218917 [mEh]      -0.05157449 [kcal/mol]      -0.21578765 [kJ/mol]
      Exch-Disp20                   0.20194661 [mEh]       0.12672341 [kcal/mol]       0.53021074 [kJ/mol]

  Total HF                        -33.37291229 [mEh]     -20.94181863 [kcal/mol]     -87.62056914 [kJ/mol]
  Total SAPT0                     -34.08422375 [mEh]     -21.38817331 [kcal/mol]     -89.48811714 [kJ/mol]
  Total SAPT2                     -32.36242505 [mEh]     -20.30772831 [kcal/mol]     -84.96753526 [kJ/mol]
  Total SAPT2+                    -32.52957098 [mEh]     -20.41261397 [kcal/mol]     -85.40637685 [kJ/mol]

  Special recipe for scaled SAPT0 (see Manual):
    Electrostatics sSAPT0         -43.50682837 [mEh]     -27.30094697 [kcal/mol]    -114.22716214 [kJ/mol]
    Exchange sSAPT0                19.60902262 [mEh]      12.30484747 [kcal/mol]      51.48348180 [kJ/mol]
    Induction sSAPT0               -9.12199911 [mEh]      -5.72414086 [kcal/mol]     -23.94980535 [kJ/mol]
    Dispersion sSAPT0              -0.70788844 [mEh]      -0.44420670 [kcal/mol]      -1.85856083 [kJ/mol]
  Total sSAPT0                    -33.72769329 [mEh]     -21.16444707 [kcal/mol]     -88.55204652 [kJ/mol]
  --------------------------------------------------------------------------------------------------------

*** Psi4 exiting successfully. Buy a developer a beer!
