                               Psi4 1.9 release

  ==> Input File <==

--------------------------------------------------------------------------
MEMORY 60 GB

molecule dimer {
0 1
O      0.000000     0.000000     0.000000
H     -0.091222     0.952699     0.091222
H     -0.629018    -0.364626     0.629018
--
1 1
Na     2.158940     0.000000     0.000000

units ang
no_reorient
no_com
symmetry c1
}

set {
basis        aug-cc-pVTZ
scf_type     df
}

energy("sapt2+")
--------------------------------------------------------------------------

  //              Dimer HF             //
    Molecular point group: c1
  Charge       = 1
  Multiplicity = 1
  Basis Set: AUG-CC-PVTZ
    Blend: AUG-CC-PVTZ
  Basis Set: (AUG-CC-PVTZ AUX)
    Blend: AUG-CC-PVTZ-JKFIT + DEF2-UNIVERSAL-JKFIT
  @DF-RHF Final Energy:  -237.76565342726573
    Total Energy =                       -237.7656534272657325
 Dipole X            :        -40.2489718           43.5168022            3.2678304
 Dipole Y            :         -0.7107902            1.1112969            0.4005067
 Dipole Z            :         -0.8493806            1.3610563            0.5116757
 Magnitude           :                                                    3.3318063
  //            Monomer A HF           //
    Molecular point group: c1
  Multiplicity = 1
  Basis Set: AUG-CC-PVTZ
    Blend: AUG-CC-PVTZ
  Basis Set: (AUG-CC-PVTZ AUX)
    Blend: AUG-CC-PVTZ-JKFIT + DEF2-UNIVERSAL-JKFIT
  @DF-RHF Final Energy:   -76.06037953108851
    Total Energy =                        -76.0603795310885005
  //            Monomer B HF           //
    Molecular point group: c1

    Geometry (in Angstrom), charge = 1, multiplicity = 1:

       Center              X                  Y                   Z               Mass
    ------------   -----------------  -----------------  -----------------  -----------------
      Gh(O)           0.000000000000     0.000000000000     0.000000000000    15.994914619570
      Gh(H)          -0.091222000000     0.952699000000     0.091222000000     1.007825032230
      Gh(H)          -0.629018000000    -0.364626000000     0.629018000000     1.007825032230
         NA           2.158940000000     0.000000000000     0.000000000000    22.989769282000

  Charge       = 1
  Multiplicity = 1
  Basis Set: AUG-CC-PVTZ
    Blend: AUG-CC-PVTZ
  Basis Set: (AUG-CC-PVTZ AUX)
    Blend: AUG-CC-PVTZ-JKFIT + DEF2-UNIVERSAL-JKFIT

    Orbital Energies [Eh]
    ---------------------

    Doubly Occupied:

       1A    -40.762611     2A     -3.074826     3A     -1.798137
       4A     -1.798005     5A     -1.797972

  @DF-RHF Final Energy:  -161.67604432395754

   => Energetics <=

    Nuclear Repulsion Energy =              0.0000000000000000
    One-Electron Energy =                -224.8889836571727017
    Two-Electron Energy =                  63.2129393332151537
    Total Energy =                       -161.6760443239575409
 Dipole X            :        -40.7986733           44.8778585            4.0791852
 Dipole Y            :          0.0000569            0.0000000            0.0000569
 Dipole Z            :          0.0000615            0.0000000            0.0000615
 Magnitude           :                                                    4.0791852

    SAPT Results
  --------------------------------------------------------------------------------------------------------
    Electrostatics                -37.71522965 [mEh]     -23.66666391 [kcal/mol]     -99.02132181 [kJ/mol]
      Elst10,r                    -38.79337750 [mEh]     -24.34321190 [kcal/mol]    -101.85199859 [kJ/mol]
      Elst12,r                      1.07814785 [mEh]       0.67654799 [kcal/mol]       2.83067678 [kJ/mol]

    Exchange                       20.93020675 [mEh]      13.13390303 [kcal/mol]      54.95225026 [kJ/mol]
      Exch10                       19.07533233 [mEh]      11.96995175 [kcal/mol]      50.08227813 [kJ/mol]
      Exch10(S^2)                  18.97289410 [mEh]      11.90567079 [kcal/mol]      49.81332660 [kJ/mol]
      Exch11(S^2)                  -0.16358294 [mEh]      -0.10264984 [kcal/mol]      -0.42948694 [kJ/mol]
      Exch12(S^2)                   2.01845736 [mEh]       1.26660112 [kcal/mol]       5.29945907 [kJ/mol]

    Induction                     -10.95191996 [mEh]      -6.87243353 [kcal/mol]     -28.75426189 [kJ/mol]
      Ind20,r                     -31.47064133 [mEh]     -19.74812558 [kcal/mol]     -82.62615742 [kJ/mol]
      Ind22                        -4.01417711 [mEh]      -2.51893417 [kcal/mol]     -10.53922055 [kJ/mol]
      Exch-Ind20,r                 20.17814292 [mEh]      12.66197585 [kcal/mol]      52.97770695 [kJ/mol]
      Exch-Ind22                    2.57378420 [mEh]       1.61507397 [kcal/mol]       6.75746949 [kJ/mol]
      delta HF,r (2)                1.78097135 [mEh]       1.11757640 [kcal/mol]       4.67593964 [kJ/mol]

    Dispersion                     -0.89436881 [mEh]      -0.56122490 [kcal/mol]      -2.34816498 [kJ/mol]
      Disp20                       -0.92532727 [mEh]      -0.58065163 [kcal/mol]      -2.42944641 [kJ/mol]
      Disp21                       -0.03278206 [mEh]      -0.02057105 [kcal/mol]      -0.08606928 [kJ/mol]
      Disp22 (SDQ)                 -0.05226810 [mEh]      -0.03279873 [kcal/mol]      -0.13722987 [kJ/mol]
      Disp22 (T)                   -0.06427574 [mEh]      -0.04033363 [kcal/mol]      -0.16875593 [kJ/mol]
      Est. Disp22 (T)              -0.08303045 [mEh]      -0.05210240 [kcal/mol]      -0.21799642 [kJ/mol]
      Exch-Disp20                   0.19903907 [mEh]       0.12489890 [kcal/mol]       0.52257700 [kJ/mol]

  Total HF                        -29.22957222 [mEh]     -18.34183348 [kcal/mol]     -76.74223129 [kJ/mol]
  Total SAPT0                     -29.95586042 [mEh]     -18.79758621 [kcal/mol]     -78.64910070 [kJ/mol]
  Total SAPT2                     -28.46323106 [mEh]     -17.86094714 [kcal/mol]     -74.73020285 [kJ/mol]
  Total SAPT2+                    -28.63131166 [mEh]     -17.96641932 [kcal/mol]     -75.17149842 [kJ/mol]

  Special recipe for scaled SAPT0 (see Manual):
    Electrostatics sSAPT0         -38.79337750 [mEh]     -24.34321190 [kcal/mol]    -101.85199859 [kJ/mol]
    Exchange sSAPT0                19.07533233 [mEh]      11.96995175 [kcal/mol]      50.08227813 [kJ/mol]
    Induction sSAPT0               -9.18292244 [mEh]      -5.76237083 [kcal/mol]     -24.10975956 [kJ/mol]
    Dispersion sSAPT0              -0.72304681 [mEh]      -0.45371873 [kcal/mol]      -1.89835915 [kJ/mol]
  Total sSAPT0                    -29.62401443 [mEh]     -18.58934971 [kcal/mol]     -77.77783917 [kJ/mol]
  --------------------------------------------------------------------------------------------------------

*** Psi4 exiting successfully. Buy a developer a beer!
