                               Psi4 1.9 release

  ==> Input File <==

--------------------------------------------------------------------------
MEMORY 60 GB

molecule dimer {
0 1
O      0.000000     0.000000     0.000000
H      0.254123     0.890994    -0.254123
H     -0.672682     0.134261     0.672682
--
1 1
K      2.466222     0.000000     0.000000

units ang
no_reorient
no_com
symmetry c1
}

set {
basis        aug-cc-pVTZ
scf_type     df
}

energy("sapt2+")
--------------------------------------------------------------------------

  //              Dimer HF             //
    Molecular point group: c1
  Charge       = 1
  Multiplicity = 1
  Basis Set: AUG-CC-PVTZ
    Blend: AUG-CC-PVTZ
  Basis Set: (AUG-CC-PVTZ AUX)
    Blend: AUG-CC-PVTZ-JKFIT + DEF2-UNIVERSAL-JKFIT
  @DF-RHF Final Energy:  -675.08468880829923
    Total Energy =                       -675.0846888082992336
 Dipole X            :        -83.7253447           87.7582369            4.0328922
 Dipole Y            :         -1.2796253            1.9374512            0.6578258
 Dipole Z            :         -0.4736740            0.7909619            0.3172878
 Magnitude           :                                                    4.0984907
  //            Monomer A HF           //
    Molecular point group: c1
  Multiplicity = 1
  Basis Set: AUG-CC-PVTZ
    Blend: AUG-CC-PVTZ
  Basis Set: (AUG-CC-PVTZ AUX)
    Blend: AUG-CC-PVTZ-JKFIT + DEF2-UNIVERSAL-JKFIT
  @DF-RHF Final Energy:   -76.06034268156203
    Total Energy =                        -76.0603426815620338
  //            Monomer B HF           //
    Molecular point group: c1

    Geometry (in Angstrom), charge = 1, multiplicity = 1:

       Center              X                  Y                   Z               Mass
    ------------   -----------------  -----------------  -----------------  -----------------
      Gh(O)           0.000000000000     0.000000000000     0.000000000000    15.994914619570
      Gh(H)           0.254123000000     0.890994000000    -0.254123000000     1.007825032230
      Gh(H)          -0.672682000000     0.134261000000     0.672682000000     1.007825032230
         K            2.466222000000     0.000000000000     0.000000000000    38.963706486400

  Charge       = 1
  Multiplicity = 1
  Basis Set: AUG-CC-PVTZ
    Blend: AUG-CC-PVTZ
  Basis Set: (AUG-CC-PVTZ AUX)
    Blend: AUG-CC-PVTZ-JKFIT + DEF2-UNIVERSAL-JKFIT

    Orbital Energies [Eh]
    ---------------------

    Doubly Occupied:

       1A   -133.753644     2A    -14.709109     3A    -11.739182
       4A    -11.739176     5A    -11.739175     6A     -1.964300
       7A     -1.170965     8A     -1.170895     9A     -1.170887

  @DF-RHF Final Energy:  -599.01750913029196

   => Energetics <=

    Nuclear Repulsion Energy =              0.0000000000000000
    One-Electron Energy =                -819.7203530442558304
    Two-Electron Energy =                 220.7028439139638749
    Total Energy =                       -599.0175091302919554
 Dipole X            :        -83.8891699           88.5491987            4.6600288
 Dipole Y            :          0.0000974            0.0000000            0.0000974
 Dipole Z            :          0.0000252            0.0000000            0.0000252
 Magnitude           :                                                    4.6600288

    SAPT Results
  --------------------------------------------------------------------------------------------------------
    Electrostatics                -22.94925972 [mEh]     -14.40087789 [kcal/mol]     -60.25327311 [kJ/mol]
      Elst10,r                    -22.59464187 [mEh]     -14.17835183 [kcal/mol]     -59.32222407 [kJ/mol]
      Elst12,r                     -0.35461785 [mEh]      -0.22252606 [kcal/mol]      -0.93104904 [kJ/mol]

    Exchange                       26.63655032 [mEh]      16.71468767 [kcal/mol]      69.93425322 [kJ/mol]
      Exch10                       24.18914024 [mEh]      15.17891466 [kcal/mol]      63.50857895 [kJ/mol]
      Exch10(S^2)                  23.93469583 [mEh]      15.01924838 [kcal/mol]      62.84053524 [kJ/mol]
      Exch11(S^2)                   0.02907130 [mEh]       0.01824252 [kcal/mol]       0.07632670 [kJ/mol]
      Exch12(S^2)                   2.41833877 [mEh]       1.51753049 [kcal/mol]       6.34934758 [kJ/mol]

    Induction                      -9.82254989 [mEh]      -6.16374311 [kcal/mol]     -25.78910118 [kJ/mol]
      Ind20,r                     -29.13517037 [mEh]     -18.28259543 [kcal/mol]     -76.49437927 [kJ/mol]
      Ind22                        -5.21291713 [mEh]      -3.27115488 [kcal/mol]     -13.68651204 [kJ/mol]
      Exch-Ind20,r                 21.36051642 [mEh]      13.40392642 [kcal/mol]      56.08202813 [kJ/mol]
      Exch-Ind22                    3.82186205 [mEh]       2.39825464 [kcal/mol]      10.03429743 [kJ/mol]
      delta HF,r (2)               -0.65684086 [mEh]      -0.41217386 [kcal/mol]      -1.72453543 [kJ/mol]

    Dispersion                     -3.91927280 [mEh]      -2.45938081 [kcal/mol]     -10.29004932 [kJ/mol]
      Disp20                       -4.70605259 [mEh]      -2.95309258 [kcal/mol]     -12.35573937 [kJ/mol]
      Disp21                        0.50657074 [mEh]       0.31787794 [kcal/mol]       1.33000128 [kJ/mol]
      Disp22 (SDQ)                 -0.02654574 [mEh]      -0.01665770 [kcal/mol]      -0.06969583 [kJ/mol]
      Disp22 (T)                   -0.43663760 [mEh]      -0.27399423 [kcal/mol]      -1.14639186 [kJ/mol]
      Est. Disp22 (T)              -0.49084374 [mEh]      -0.30800910 [kcal/mol]      -1.28871006 [kJ/mol]
      Exch-Disp20                   0.79759853 [mEh]       0.50050064 [kcal/mol]       2.09409466 [kJ/mol]

  Total HF                         -6.83699645 [mEh]      -4.29028004 [kcal/mol]     -17.95053169 [kJ/mol]
  Total SAPT0                     -10.74545050 [mEh]      -6.74287199 [kcal/mol]     -28.21217641 [kJ/mol]
  Total SAPT2                     -10.04371336 [mEh]      -6.30252528 [kcal/mol]     -26.36976578 [kJ/mol]
  Total SAPT2+                    -10.05453210 [mEh]      -6.30931415 [kcal/mol]     -26.39817038 [kJ/mol]

  Special recipe for scaled SAPT0 (see Manual):
    Electrostatics sSAPT0         -22.59464187 [mEh]     -14.17835183 [kcal/mol]     -59.32222407 [kJ/mol]
    Exchange sSAPT0                24.18914024 [mEh]      15.17891466 [kcal/mol]      63.50857895 [kJ/mol]
    Induction sSAPT0               -7.74299042 [mEh]      -4.85879984 [kcal/mol]     -20.32921854 [kJ/mol]
    Dispersion sSAPT0              -3.88274540 [mEh]      -2.43645953 [kcal/mol]     -10.19414666 [kJ/mol]
  Total sSAPT0                    -10.03123746 [mEh]      -6.29469654 [kcal/mol]     -26.33701032 [kJ/mol]
  --------------------------------------------------------------------------------------------------------

*** Psi4 exiting successfully. Buy a developer a beer!
