                               Psi4 1.9 release

  ==> Input File <==

--------------------------------------------------------------------------
MEMORY 60 GB

molecule dimer {
0 1
O      0.000000     0.000000     0.000000
H     -0.674332     0.116533     0.674332
H      0.082401    -0.953649    -0.082401
--
1 1
K      2.466222     0.000000     0.000000

units ang
no_reorient
no_com
symmetry c1
}

set {
basis        aug-cc-pVTZ
scf_type     df
}

energy("sapt2+")
--------------------------------------------------------------------------

  //              Dimer HF             //
    Molecular point group: c1
  Charge       = 1
  Multiplicity = 1
  Basis Set: AUG-CC-PVTZ
    Blend: AUG-CC-PVTZ
  Basis Set: (AUG-CC-PVTZ AUX)
    Blend: AUG-CC-PVTZ-JKFIT + DEF2-UNIVERSAL-JKFIT
  @DF-RHF Final Energy:  -675.09072591636993
    Total Energy =                       -675.0907259163698200
 Dipole X            :        -83.5190957           87.4306113            3.9115155
 Dipole Y            :          1.0443449           -1.5819200           -0.5375751
 Dipole Z            :         -0.6947146            1.1185875            0.4238729
 Magnitude           :                                                    3.9709708
  //            Monomer A HF           //
    Molecular point group: c1
  Multiplicity = 1
  Basis Set: AUG-CC-PVTZ
    Blend: AUG-CC-PVTZ
  Basis Set: (AUG-CC-PVTZ AUX)
    Blend: AUG-CC-PVTZ-JKFIT + DEF2-UNIVERSAL-JKFIT
  @DF-RHF Final Energy:   -76.06034303190172
    Total Energy =                        -76.0603430319017235
  //            Monomer B HF           //
    Molecular point group: c1

    Geometry (in Angstrom), charge = 1, multiplicity = 1:

       Center              X                  Y                   Z               Mass
    ------------   -----------------  -----------------  -----------------  -----------------
      Gh(O)           0.000000000000     0.000000000000     0.000000000000    15.994914619570
      Gh(H)          -0.674332000000     0.116533000000     0.674332000000     1.007825032230
      Gh(H)           0.082401000000    -0.953649000000    -0.082401000000     1.007825032230
         K            2.466222000000     0.000000000000     0.000000000000    38.963706486400

  Charge       = 1
  Multiplicity = 1
  Basis Set: AUG-CC-PVTZ
    Blend: AUG-CC-PVTZ
  Basis Set: (AUG-CC-PVTZ AUX)
    Blend: AUG-CC-PVTZ-JKFIT + DEF2-UNIVERSAL-JKFIT

    Orbital Energies [Eh]
    ---------------------

    Doubly Occupied:

       1A   -133.753679     2A    -14.709136     3A    -11.739209
       4A    -11.739203     5A    -11.739203     6A     -1.964311
       7A     -1.170971     8A     -1.170903     9A     -1.170898

  @DF-RHF Final Energy:  -599.01750897220825

   => Energetics <=

    Nuclear Repulsion Energy =              0.0000000000000000
    One-Electron Energy =                -819.7199910229552415
    Two-Electron Energy =                 220.7024820507469371
    Total Energy =                       -599.0175089722083612
 Dipole X            :        -83.8891473           88.5491987            4.6600514
 Dipole Y            :         -0.0000527            0.0000000           -0.0000527
 Dipole Z            :          0.0000587            0.0000000            0.0000587
 Magnitude           :                                                    4.6600514

    SAPT Results
  --------------------------------------------------------------------------------------------------------
    Electrostatics                -28.36304251 [mEh]     -17.79807788 [kcal/mol]     -74.46715785 [kJ/mol]
      Elst10,r                    -28.25082692 [mEh]     -17.72766153 [kcal/mol]     -74.17253586 [kJ/mol]
      Elst12,r                     -0.11221559 [mEh]      -0.07041635 [kcal/mol]      -0.29462199 [kJ/mol]

    Exchange                       26.03343509 [mEh]      16.33622716 [kcal/mol]      68.35077442 [kJ/mol]
      Exch10                       23.65395080 [mEh]      14.84307822 [kcal/mol]      62.10343927 [kJ/mol]
      Exch10(S^2)                  23.40378447 [mEh]      14.68609648 [kcal/mol]      61.44662766 [kJ/mol]
      Exch11(S^2)                   0.04455152 [mEh]       0.02795650 [kcal/mol]       0.11697001 [kJ/mol]
      Exch12(S^2)                   2.33493277 [mEh]       1.46519243 [kcal/mol]       6.13036514 [kJ/mol]

    Induction                      -9.61810415 [mEh]      -6.03545148 [kcal/mol]     -25.25232897 [kJ/mol]
      Ind20,r                     -28.98708563 [mEh]     -18.18967085 [kcal/mol]     -76.10558285 [kJ/mol]
      Ind22                        -5.04213930 [mEh]      -3.16399018 [kcal/mol]     -13.23813492 [kJ/mol]
      Exch-Ind20,r                 21.27733170 [mEh]      13.35172722 [kcal/mol]      55.86362668 [kJ/mol]
      Exch-Ind22                    3.70107129 [mEh]       2.32245730 [kcal/mol]       9.71716133 [kJ/mol]
      delta HF,r (2)               -0.56728220 [mEh]      -0.35597496 [kcal/mol]      -1.48939922 [kJ/mol]

    Dispersion                     -3.74822323 [mEh]      -2.35204559 [kcal/mol]      -9.84095874 [kJ/mol]
      Disp20                       -4.53185008 [mEh]      -2.84377886 [kcal/mol]     -11.89837075 [kJ/mol]
      Disp21                        0.50161130 [mEh]       0.31476584 [kcal/mol]       1.31698029 [kJ/mol]
      Disp22 (SDQ)                 -0.03070496 [mEh]      -0.01926765 [kcal/mol]      -0.08061585 [kJ/mol]
      Disp22 (T)                   -0.41662380 [mEh]      -0.26143538 [kcal/mol]      -1.09384563 [kJ/mol]
      Est. Disp22 (T)              -0.46979447 [mEh]      -0.29480048 [kcal/mol]      -1.23344522 [kJ/mol]
      Exch-Disp20                   0.78251498 [mEh]       0.49103556 [kcal/mol]       2.05449278 [kJ/mol]

  Total HF                        -12.87391226 [mEh]      -8.07850191 [kcal/mol]     -33.80045198 [kJ/mol]
  Total SAPT0                     -16.62324737 [mEh]     -10.43124521 [kcal/mol]     -43.64432995 [kJ/mol]
  Total SAPT2                     -15.69704668 [mEh]      -9.85004550 [kcal/mol]     -41.21259037 [kJ/mol]
  Total SAPT2+                    -15.69593480 [mEh]      -9.84934779 [kcal/mol]     -41.20967115 [kJ/mol]

  Special recipe for scaled SAPT0 (see Manual):
    Electrostatics sSAPT0         -28.25082692 [mEh]     -17.72766153 [kcal/mol]     -74.17253586 [kJ/mol]
    Exchange sSAPT0                23.65395080 [mEh]      14.84307822 [kcal/mol]      62.10343927 [kJ/mol]
    Induction sSAPT0               -7.58740771 [mEh]      -4.76117022 [kcal/mol]     -19.92073621 [kJ/mol]
    Dispersion sSAPT0              -3.72397269 [mEh]      -2.33682814 [kcal/mol]      -9.77728895 [kJ/mol]
  Total sSAPT0                    -15.90825653 [mEh]      -9.98258168 [kcal/mol]     -41.76712176 [kJ/mol]
  --------------------------------------------------------------------------------------------------------

*** Psi4 exiting successfully. Buy a developer a beer!
