                               Psi4 1.9 release

  ==> Input File <==

--------------------------------------------------------------------------
MEMORY 60 GB

molecule dimer {
0 1
O      0.000000     0.000000     0.000000
H     -0.542788     0.577745     0.542788
H     -0.265805    -0.884151     0.265805
--
1 1
K      2.466222     0.000000     0.000000

units ang
no_reorient
no_com
symmetry c1
}

set {
basis        aug-cc-pVTZ
scf_type     df
}

energy("sapt2+")
--------------------------------------------------------------------------

  //              Dimer HF             //
    Molecular point group: c1
  Charge       = 1
  Multiplicity = 1
  Basis Set: AUG-CC-PVTZ
    Blend: AUG-CC-PVTZ
  Basis Set: (AUG-CC-PVTZ AUX)
    Blend: AUG-CC-PVTZ-JKFIT + DEF2-UNIVERSAL-JKFIT
  @DF-RHF Final Energy:  -675.09735537060249
    Total Energy =                       -675.0973553706023722
 Dipole X            :        -83.2629567           87.0211794            3.7582227
 Dipole Y            :          0.3815779           -0.5790234           -0.1974455
 Dipole Z            :         -0.9686846            1.5280193            0.5593347
 Magnitude           :                                                    3.8047441
  //            Monomer A HF           //
    Molecular point group: c1
  Multiplicity = 1
  Basis Set: AUG-CC-PVTZ
    Blend: AUG-CC-PVTZ
  Basis Set: (AUG-CC-PVTZ AUX)
    Blend: AUG-CC-PVTZ-JKFIT + DEF2-UNIVERSAL-JKFIT
  @DF-RHF Final Energy:   -76.06034518769793
    Total Energy =                        -76.0603451876979335
  //            Monomer B HF           //
    Molecular point group: c1

    Geometry (in Angstrom), charge = 1, multiplicity = 1:

       Center              X                  Y                   Z               Mass
    ------------   -----------------  -----------------  -----------------  -----------------
      Gh(O)           0.000000000000     0.000000000000     0.000000000000    15.994914619570
      Gh(H)          -0.542788000000     0.577745000000     0.542788000000     1.007825032230
      Gh(H)          -0.265805000000    -0.884151000000     0.265805000000     1.007825032230
         K            2.466222000000     0.000000000000     0.000000000000    38.963706486400

  Charge       = 1
  Multiplicity = 1
  Basis Set: AUG-CC-PVTZ
    Blend: AUG-CC-PVTZ
  Basis Set: (AUG-CC-PVTZ AUX)
    Blend: AUG-CC-PVTZ-JKFIT + DEF2-UNIVERSAL-JKFIT

    Orbital Energies [Eh]
    ---------------------

    Doubly Occupied:

       1A   -133.753677     2A    -14.709135     3A    -11.739208
       4A    -11.739202     5A    -11.739202     6A     -1.964313
       7A     -1.170974     8A     -1.170902     9A     -1.170898

  @DF-RHF Final Energy:  -599.01750885707315

   => Energetics <=

    Nuclear Repulsion Energy =              0.0000000000000000
    One-Electron Energy =                -819.7199942660167835
    Two-Electron Energy =                 220.7024854089436872
    Total Energy =                       -599.0175088570731532
 Dipole X            :        -83.8891547           88.5491987            4.6600440
 Dipole Y            :         -0.0000100            0.0000000           -0.0000100
 Dipole Z            :          0.0000944            0.0000000            0.0000944
 Magnitude           :                                                    4.6600440

    SAPT Results
  --------------------------------------------------------------------------------------------------------
    Electrostatics                -35.28481476 [mEh]     -22.14155554 [kcal/mol]     -92.64026838 [kJ/mol]
      Elst10,r                    -35.46214796 [mEh]     -22.25283380 [kcal/mol]     -93.10585664 [kJ/mol]
      Elst12,r                      0.17733320 [mEh]       0.11127826 [kcal/mol]       0.46558825 [kJ/mol]

    Exchange                       26.55527108 [mEh]      16.66368418 [kcal/mol]      69.72085461 [kJ/mol]
      Exch10                       24.21437403 [mEh]      15.19474910 [kcal/mol]      63.57483024 [kJ/mol]
      Exch10(S^2)                  23.94359013 [mEh]      15.02482964 [kcal/mol]      62.86388722 [kJ/mol]
      Exch11(S^2)                   0.07186863 [mEh]       0.04509824 [kcal/mol]       0.18869106 [kJ/mol]
      Exch12(S^2)                   2.26902843 [mEh]       1.42383683 [kcal/mol]       5.95733331 [kJ/mol]

    Induction                      -9.54466031 [mEh]      -5.98936477 [kcal/mol]     -25.05950220 [kJ/mol]
      Ind20,r                     -30.03371230 [mEh]     -18.84643900 [kcal/mol]     -78.85350078 [kJ/mol]
      Ind22                        -4.95126928 [mEh]      -3.10696838 [kcal/mol]     -12.99955569 [kJ/mol]
      Exch-Ind20,r                 22.20202784 [mEh]      13.93198280 [kcal/mol]      58.29141605 [kJ/mol]
      Exch-Ind22                    3.66016086 [mEh]       2.29678562 [kcal/mol]       9.60975102 [kJ/mol]
      delta HF,r (2)               -0.42186744 [mEh]      -0.26472581 [kcal/mol]      -1.10761280 [kJ/mol]

    Dispersion                     -3.62151883 [mEh]      -2.27253738 [kcal/mol]      -9.50829639 [kJ/mol]
      Disp20                       -4.41667788 [mEh]      -2.77150721 [kcal/mol]     -11.59598619 [kJ/mol]
      Disp21                        0.49151938 [mEh]       0.30843307 [kcal/mol]       1.29048396 [kJ/mol]
      Disp22 (SDQ)                 -0.03447281 [mEh]      -0.02163201 [kcal/mol]      -0.09050835 [kJ/mol]
      Disp22 (T)                   -0.40183969 [mEh]      -0.25215821 [kcal/mol]      -1.05502997 [kJ/mol]
      Est. Disp22 (T)              -0.45569953 [mEh]      -0.28595577 [kcal/mol]      -1.19643895 [kJ/mol]
      Exch-Disp20                   0.79381201 [mEh]       0.49812456 [kcal/mol]       2.08415314 [kJ/mol]

  Total HF                        -19.50132583 [mEh]     -12.23726671 [kcal/mol]     -51.20072392 [kJ/mol]
  Total SAPT0                     -23.12419171 [mEh]     -14.51064937 [kcal/mol]     -60.71255696 [kJ/mol]
  Total SAPT2                     -21.89706987 [mEh]     -13.74061879 [kcal/mol]     -57.49074901 [kJ/mol]
  Total SAPT2+                    -21.89572282 [mEh]     -13.73977351 [kcal/mol]     -57.48721236 [kJ/mol]

  Special recipe for scaled SAPT0 (see Manual):
    Electrostatics sSAPT0         -35.46214796 [mEh]     -22.25283380 [kcal/mol]     -93.10585664 [kJ/mol]
    Exchange sSAPT0                24.21437403 [mEh]      15.19474910 [kcal/mol]      63.57483024 [kJ/mol]
    Induction sSAPT0               -7.49173650 [mEh]      -4.70113563 [kcal/mol]     -19.66955148 [kJ/mol]
    Dispersion sSAPT0              -3.59562790 [mEh]      -2.25629057 [kcal/mol]      -9.44031976 [kJ/mol]
  Total sSAPT0                    -22.33513834 [mEh]     -14.01551091 [kcal/mol]     -58.64089763 [kJ/mol]
  --------------------------------------------------------------------------------------------------------

*** Psi4 exiting successfully. Buy a developer a beer!
