                               Psi4 1.9 release

  ==> Input File <==

--------------------------------------------------------------------------
MEMORY 60 GB

molecule dimer {
0 1
O      0.000000     0.000000     0.000000
H     -0.094937     0.951316     0.094937
H     -0.630028    -0.359385     0.630028
--
1 1
K      2.466222     0.000000     0.000000

units ang
no_reorient
no_com
symmetry c1
}

set {
basis        aug-cc-pVTZ
scf_type     df
}

energy("sapt2+")
--------------------------------------------------------------------------

  //              Dimer HF             //
    Molecular point group: c1
  Charge       = 1
  Multiplicity = 1
  Basis Set: AUG-CC-PVTZ
    Blend: AUG-CC-PVTZ
  Basis Set: (AUG-CC-PVTZ AUX)
    Blend: AUG-CC-PVTZ-JKFIT + DEF2-UNIVERSAL-JKFIT
  @DF-RHF Final Energy:  -675.09490344851474
    Total Energy =                       -675.0949034485147422
 Dipole X            :        -83.3615116           87.1792134            3.8177019
 Dipole Y            :         -0.7377439            1.1185875            0.3808436
 Dipole Z            :         -0.8632584            1.3699853            0.5067269
 Magnitude           :                                                    3.8699692
  //            Monomer A HF           //
    Molecular point group: c1
  Multiplicity = 1
  Basis Set: AUG-CC-PVTZ
    Blend: AUG-CC-PVTZ
  Basis Set: (AUG-CC-PVTZ AUX)
    Blend: AUG-CC-PVTZ-JKFIT + DEF2-UNIVERSAL-JKFIT
  @DF-RHF Final Energy:   -76.06034402169929
    Total Energy =                        -76.0603440216992794
  //            Monomer B HF           //
    Molecular point group: c1

    Geometry (in Angstrom), charge = 1, multiplicity = 1:

       Center              X                  Y                   Z               Mass
    ------------   -----------------  -----------------  -----------------  -----------------
      Gh(O)           0.000000000000     0.000000000000     0.000000000000    15.994914619570
      Gh(H)          -0.094937000000     0.951316000000     0.094937000000     1.007825032230
      Gh(H)          -0.630028000000    -0.359385000000     0.630028000000     1.007825032230
         K            2.466222000000     0.000000000000     0.000000000000    38.963706486400

  Charge       = 1
  Multiplicity = 1
  Basis Set: AUG-CC-PVTZ
    Blend: AUG-CC-PVTZ
  Basis Set: (AUG-CC-PVTZ AUX)
    Blend: AUG-CC-PVTZ-JKFIT + DEF2-UNIVERSAL-JKFIT

    Orbital Energies [Eh]
    ---------------------

    Doubly Occupied:

       1A   -133.753687     2A    -14.709143     3A    -11.739216
       4A    -11.739210     5A    -11.739209     6A     -1.964315
       7A     -1.170974     8A     -1.170905     9A     -1.170901

  @DF-RHF Final Energy:  -599.01750887404989

   => Energetics <=

    Nuclear Repulsion Energy =              0.0000000000000000
    One-Electron Energy =                -819.7198978340603617
    Two-Electron Energy =                 220.7023889600104667
    Total Energy =                       -599.0175088740498950
 Dipole X            :        -83.8891447           88.5491987            4.6600541
 Dipole Y            :          0.0000225            0.0000000            0.0000225
 Dipole Z            :          0.0000806            0.0000000            0.0000806
 Magnitude           :                                                    4.6600541

    SAPT Results
  --------------------------------------------------------------------------------------------------------
    Electrostatics                -32.59781089 [mEh]     -20.45543516 [kcal/mol]     -85.58554070 [kJ/mol]
      Elst10,r                    -32.66319995 [mEh]     -20.49646741 [kcal/mol]     -85.75721964 [kJ/mol]
      Elst12,r                      0.06538906 [mEh]       0.04103225 [kcal/mol]       0.17167894 [kJ/mol]

    Exchange                       26.20908177 [mEh]      16.44644711 [kcal/mol]      68.81193470 [kJ/mol]
      Exch10                       23.85633182 [mEh]      14.97007423 [kcal/mol]      62.63479056 [kJ/mol]
      Exch10(S^2)                  23.59656504 [mEh]      14.80706811 [kcal/mol]      61.95277297 [kJ/mol]
      Exch11(S^2)                   0.06085271 [mEh]       0.03818565 [kcal/mol]       0.15976876 [kJ/mol]
      Exch12(S^2)                   2.29189724 [mEh]       1.43818723 [kcal/mol]       6.01737538 [kJ/mol]

    Induction                      -9.55280562 [mEh]      -5.99447603 [kcal/mol]     -25.08088770 [kJ/mol]
      Ind20,r                     -29.49268736 [mEh]     -18.50694072 [kcal/mol]     -77.43303999 [kJ/mol]
      Ind22                        -4.97466519 [mEh]      -3.12164954 [kcal/mol]     -13.06098166 [kJ/mol]
      Exch-Ind20,r                 21.73146236 [mEh]      13.63669851 [kcal/mol]      57.05594657 [kJ/mol]
      Exch-Ind22                    3.66554421 [mEh]       2.30016372 [kcal/mol]       9.62388500 [kJ/mol]
      delta HF,r (2)               -0.48245964 [mEh]      -0.30274800 [kcal/mol]      -1.26669761 [kJ/mol]

    Dispersion                     -3.66184308 [mEh]      -2.29784122 [kcal/mol]      -9.61416768 [kJ/mol]
      Disp20                       -4.45113302 [mEh]      -2.79312814 [kcal/mol]     -11.68644814 [kJ/mol]
      Disp21                        0.49627840 [mEh]       0.31141940 [kcal/mol]       1.30297876 [kJ/mol]
      Disp22 (SDQ)                 -0.03324042 [mEh]      -0.02085868 [kcal/mol]      -0.08727270 [kJ/mol]
      Disp22 (T)                   -0.40645749 [mEh]      -0.25505593 [kcal/mol]      -1.06715399 [kJ/mol]
      Est. Disp22 (T)              -0.45980641 [mEh]      -0.28853288 [kcal/mol]      -1.20722156 [kJ/mol]
      Exch-Disp20                   0.78605837 [mEh]       0.49325907 [kcal/mol]       2.06379596 [kJ/mol]

  Total HF                        -17.05055277 [mEh]     -10.69938339 [kcal/mol]     -44.76622012 [kJ/mol]
  Total SAPT0                     -20.71562742 [mEh]     -12.99925246 [kcal/mol]     -54.38887230 [kJ/mol]
  Total SAPT2                     -19.60660940 [mEh]     -12.30333315 [kcal/mol]     -51.47714588 [kJ/mol]
  Total SAPT2+                    -19.60337782 [mEh]     -12.30130530 [kcal/mol]     -51.46866138 [kJ/mol]

  Special recipe for scaled SAPT0 (see Manual):
    Electrostatics sSAPT0         -32.66319995 [mEh]     -20.49646741 [kcal/mol]     -85.75721964 [kJ/mol]
    Exchange sSAPT0                23.85633182 [mEh]      14.97007423 [kcal/mol]      62.63479056 [kJ/mol]
    Induction sSAPT0               -7.51805124 [mEh]      -4.71764838 [kcal/mol]     -19.73864082 [kJ/mol]
    Dispersion sSAPT0              -3.63882745 [mEh]      -2.28339870 [kcal/mol]      -9.55374015 [kJ/mol]
  Total sSAPT0                    -19.96374682 [mEh]     -12.52744026 [kcal/mol]     -52.41481005 [kJ/mol]
  --------------------------------------------------------------------------------------------------------

*** Psi4 exiting successfully. Buy a developer a beer!
