                               Psi4 1.9 release

  ==> Input File <==

--------------------------------------------------------------------------
MEMORY 60 GB

molecule dimer {
0 1
O      0.000000     0.000000     0.000000
H      0.392600     0.780169    -0.392600
H      0.511653    -0.775519    -0.511653
--
-1 1
F      2.426389     0.000000     0.000000

units ang
no_reorient
no_com
symmetry c1
}

set {
basis        aug-cc-pVTZ
scf_type     df
}

energy("sapt2+")
--------------------------------------------------------------------------

  //              Dimer HF             //
    Molecular point group: c1
  Charge       = -1
  Multiplicity = 1
  Basis Set: AUG-CC-PVTZ
    Blend: AUG-CC-PVTZ
  Basis Set: (AUG-CC-PVTZ AUX)
    Blend: AUG-CC-PVTZ-JKFIT
  @DF-RHF Final Energy:  -175.50568784141666
    Total Energy =                       -175.5056878414166590
 Dipole X            :        -46.6199302           42.9756867           -3.6442436
 Dipole Y            :          0.0037466            0.0087872            0.0125339
 Dipole Z            :          1.2065067           -1.7087905           -0.5022838
 Magnitude           :                                                    3.6787168
  //            Monomer A HF           //
    Molecular point group: c1
  Multiplicity = 1
  Basis Set: AUG-CC-PVTZ
    Blend: AUG-CC-PVTZ
  Basis Set: (AUG-CC-PVTZ AUX)
    Blend: AUG-CC-PVTZ-JKFIT
  @DF-RHF Final Energy:   -76.04860348554422
    Total Energy =                        -76.0486034855442199
  //            Monomer B HF           //
    Molecular point group: c1

    Geometry (in Angstrom), charge = -1, multiplicity = 1:

       Center              X                  Y                   Z               Mass
    ------------   -----------------  -----------------  -----------------  -----------------
      Gh(O)           0.000000000000     0.000000000000     0.000000000000    15.994914619570
      Gh(H)           0.392600000000     0.780169000000    -0.392600000000     1.007825032230
      Gh(H)           0.511653000000    -0.775519000000    -0.511653000000     1.007825032230
         F            2.426389000000     0.000000000000     0.000000000000    18.998403162730

  Charge       = -1
  Multiplicity = 1
  Basis Set: AUG-CC-PVTZ
    Blend: AUG-CC-PVTZ
  Basis Set: (AUG-CC-PVTZ AUX)
    Blend: AUG-CC-PVTZ-JKFIT

    Orbital Energies [Eh]
    ---------------------

    Doubly Occupied:

       1A    -25.833749     2A     -1.076034     3A     -0.181025
       4A     -0.180963     5A     -0.180949

  @DF-RHF Final Energy:   -99.45088114026460

   => Energetics <=

    Nuclear Repulsion Energy =              0.0000000000000000
    One-Electron Energy =                -143.9963240943773712
    Two-Electron Energy =                  44.5454429541127865
    Total Energy =                        -99.4508811402645847
 Dipole X            :        -45.8529398           41.2668962           -4.5860436
 Dipole Y            :          0.0000153            0.0000000            0.0000153
 Dipole Z            :         -0.0000545            0.0000000           -0.0000545
 Magnitude           :                                                    4.5860436

    SAPT Results
  --------------------------------------------------------------------------------------------------------
    Electrostatics                -29.87085207 [mEh]     -18.74424267 [kcal/mol]     -78.42591132 [kJ/mol]
      Elst10,r                    -26.23660778 [mEh]     -16.46371994 [kcal/mol]     -68.88420423 [kJ/mol]
      Elst12,r                     -3.63424430 [mEh]      -2.28052273 [kcal/mol]      -9.54170709 [kJ/mol]

    Exchange                       39.56024819 [mEh]      24.82443053 [kcal/mol]     103.86541732 [kJ/mol]
      Exch10                       30.52244663 [mEh]      19.15312443 [kcal/mol]      80.13667260 [kJ/mol]
      Exch10(S^2)                  30.22055925 [mEh]      18.96368723 [kcal/mol]      79.34406738 [kJ/mol]
      Exch11(S^2)                  -0.16998708 [mEh]      -0.10666850 [kcal/mol]      -0.44630101 [kJ/mol]
      Exch12(S^2)                   9.20778864 [mEh]       5.77797460 [kcal/mol]      24.17504573 [kJ/mol]

    Induction                     -13.12807228 [mEh]      -8.23798973 [kcal/mol]     -34.46774903 [kJ/mol]
      Ind20,r                     -22.77762341 [mEh]     -14.29317448 [kcal/mol]     -59.80264202 [kJ/mol]
      Ind22                        -7.15831492 [mEh]      -4.49191043 [kcal/mol]     -18.79415322 [kJ/mol]
      Exch-Ind20,r                 14.38031835 [mEh]       9.02378600 [kcal/mol]      37.75552062 [kJ/mol]
      Exch-Ind22                    4.51929710 [mEh]       2.83590174 [kcal/mol]      11.86541289 [kJ/mol]
      delta HF,r (2)               -2.09174941 [mEh]      -1.31259257 [kcal/mol]      -5.49188731 [kJ/mol]

    Dispersion                     -9.03315084 [mEh]      -5.66838773 [kcal/mol]     -23.71653426 [kJ/mol]
      Disp20                       -9.22865579 [mEh]      -5.79106894 [kcal/mol]     -24.22983245 [kJ/mol]
      Disp21                        0.28878179 [mEh]       0.18121331 [kcal/mol]       0.75819649 [kJ/mol]
      Disp22 (SDQ)                 -1.17263550 [mEh]      -0.73583989 [kcal/mol]      -3.07875409 [kJ/mol]
      Disp22 (T)                   -1.66017881 [mEh]      -1.04177793 [kcal/mol]      -4.35879886 [kJ/mol]
      Est. Disp22 (T)              -1.97033590 [mEh]      -1.23640444 [kcal/mol]      -5.17311620 [kJ/mol]
      Exch-Disp20                   3.04969457 [mEh]       1.91371223 [kcal/mol]       8.00697198 [kJ/mol]

  Total HF                         -6.20321561 [mEh]      -3.89257656 [kcal/mol]     -16.28654033 [kJ/mol]
  Total SAPT0                     -12.38217684 [mEh]      -7.76993327 [kcal/mol]     -32.50940080 [kJ/mol]
  Total SAPT2                      -9.61763739 [mEh]      -6.03515858 [kcal/mol]     -25.25110350 [kJ/mol]
  Total SAPT2+                    -12.47182701 [mEh]      -7.82618960 [kcal/mol]     -32.74477729 [kJ/mol]

  Special recipe for scaled SAPT0 (see Manual):
    Electrostatics sSAPT0         -26.23660778 [mEh]     -16.46371994 [kcal/mol]     -68.88420423 [kJ/mol]
    Exchange sSAPT0                30.52244663 [mEh]      19.15312443 [kcal/mol]      80.13667260 [kJ/mol]
    Induction sSAPT0              -10.05377982 [mEh]      -6.30884208 [kcal/mol]     -26.39619527 [kJ/mol]
    Dispersion sSAPT0              -6.08665070 [mEh]      -3.81943098 [kcal/mol]     -15.98049922 [kJ/mol]
  Total sSAPT0                    -11.85459166 [mEh]      -7.43886858 [kcal/mol]     -31.12422612 [kJ/mol]
  --------------------------------------------------------------------------------------------------------

*** Psi4 exiting successfully. Buy a developer a beer!
