                               Psi4 1.9 release

  ==> Input File <==

--------------------------------------------------------------------------
MEMORY 60 GB

molecule dimer {
0 1
O      0.000000     0.000000     0.000000
H      0.064170     0.953257    -0.064170
H      0.717292    -0.309825    -0.717292
--
-1 1
F      2.426389     0.000000     0.000000

units ang
no_reorient
no_com
symmetry c1
}

set {
basis        aug-cc-pVTZ
scf_type     df
}

energy("sapt2+")
--------------------------------------------------------------------------

  //              Dimer HF             //
    Molecular point group: c1
  Charge       = -1
  Multiplicity = 1
  Basis Set: AUG-CC-PVTZ
    Blend: AUG-CC-PVTZ
  Basis Set: (AUG-CC-PVTZ AUX)
    Blend: AUG-CC-PVTZ-JKFIT
  @DF-RHF Final Energy:  -175.50784636731214
    Total Energy =                       -175.5078463673121405
 Dipole X            :        -46.3947280           42.7436453           -3.6510827
 Dipole Y            :         -0.8390825            1.2159103            0.3768278
 Dipole Z            :          1.0499181           -1.4767492           -0.4268310
 Magnitude           :                                                    3.6952116
  //            Monomer A HF           //
    Molecular point group: c1
  Multiplicity = 1
  Basis Set: AUG-CC-PVTZ
    Blend: AUG-CC-PVTZ
  Basis Set: (AUG-CC-PVTZ AUX)
    Blend: AUG-CC-PVTZ-JKFIT
  @DF-RHF Final Energy:   -76.04860884557361
    Total Energy =                        -76.0486088455735967
  //            Monomer B HF           //
    Molecular point group: c1

    Geometry (in Angstrom), charge = -1, multiplicity = 1:

       Center              X                  Y                   Z               Mass
    ------------   -----------------  -----------------  -----------------  -----------------
      Gh(O)           0.000000000000     0.000000000000     0.000000000000    15.994914619570
      Gh(H)           0.064170000000     0.953257000000    -0.064170000000     1.007825032230
      Gh(H)           0.717292000000    -0.309825000000    -0.717292000000     1.007825032230
         F            2.426389000000     0.000000000000     0.000000000000    18.998403162730

  Charge       = -1
  Multiplicity = 1
  Basis Set: AUG-CC-PVTZ
    Blend: AUG-CC-PVTZ
  Basis Set: (AUG-CC-PVTZ AUX)
    Blend: AUG-CC-PVTZ-JKFIT

    Orbital Energies [Eh]
    ---------------------

    Doubly Occupied:

       1A    -25.833762     2A     -1.076032     3A     -0.181020
       4A     -0.180964     5A     -0.180947

  @DF-RHF Final Energy:   -99.45087863950810

   => Energetics <=

    Nuclear Repulsion Energy =              0.0000000000000000
    One-Electron Energy =                -143.9963074288429254
    Two-Electron Energy =                  44.5454287893348209
    Total Energy =                        -99.4508786395081046
 Dipole X            :        -45.8529415           41.2668962           -4.5860454
 Dipole Y            :         -0.0001196            0.0000000           -0.0001196
 Dipole Z            :          0.0001646            0.0000000            0.0001646
 Magnitude           :                                                    4.5860454

    SAPT Results
  --------------------------------------------------------------------------------------------------------
    Electrostatics                -32.62795175 [mEh]     -20.47434883 [kcal/mol]     -85.66467551 [kJ/mol]
      Elst10,r                    -29.03625072 [mEh]     -18.22052241 [kcal/mol]     -76.23466577 [kJ/mol]
      Elst12,r                     -3.59170103 [mEh]      -2.25382642 [kcal/mol]      -9.43000974 [kJ/mol]

    Exchange                       43.93521775 [mEh]      27.56976537 [kcal/mol]     115.35189832 [kJ/mol]
      Exch10                       34.61147864 [mEh]      21.71903075 [kcal/mol]      90.87242464 [kJ/mol]
      Exch10(S^2)                  34.16175369 [mEh]      21.43682408 [kcal/mol]      89.69167196 [kJ/mol]
      Exch11(S^2)                  -0.13559073 [mEh]      -0.08508447 [kcal/mol]      -0.35599342 [kJ/mol]
      Exch12(S^2)                   9.45932985 [mEh]       5.93581910 [kcal/mol]      24.83546710 [kJ/mol]

    Induction                     -16.87256727 [mEh]     -10.58769581 [kcal/mol]     -44.29891927 [kJ/mol]
      Ind20,r                     -25.30026425 [mEh]     -15.87615550 [kcal/mol]     -66.42583463 [kJ/mol]
      Ind22                        -7.19530104 [mEh]      -4.51511957 [kcal/mol]     -18.89126028 [kJ/mol]
      Exch-Ind20,r                 14.96800137 [mEh]       9.39256266 [kcal/mol]      39.29848218 [kJ/mol]
      Exch-Ind22                    4.25684391 [mEh]       2.67120988 [kcal/mol]      11.17634215 [kJ/mol]
      delta HF,r (2)               -3.60184727 [mEh]      -2.26019328 [kcal/mol]      -9.45664869 [kJ/mol]

    Dispersion                     -9.59413477 [mEh]      -6.02041046 [kcal/mol]     -25.18939737 [kJ/mol]
      Disp20                       -9.94055497 [mEh]      -6.23779242 [kcal/mol]     -26.09892347 [kJ/mol]
      Disp21                        0.34675263 [mEh]       0.21759056 [kcal/mol]       0.91039891 [kJ/mol]
      Disp22 (SDQ)                 -1.16877963 [mEh]      -0.73342029 [kcal/mol]      -3.06863048 [kJ/mol]
      Disp22 (T)                   -1.77151648 [mEh]      -1.11164338 [kcal/mol]      -4.65111589 [kJ/mol]
      Est. Disp22 (T)              -2.08931328 [mEh]      -1.31106388 [kcal/mol]      -5.48549126 [kJ/mol]
      Exch-Disp20                   3.25776047 [mEh]       2.04427556 [kcal/mol]       8.55324893 [kJ/mol]

  Total HF                         -8.35888223 [mEh]      -5.24527779 [kcal/mol]     -21.94624227 [kJ/mol]
  Total SAPT0                     -15.04167673 [mEh]      -9.43879465 [kcal/mol]     -39.49191681 [kJ/mol]
  Total SAPT2                     -12.24809577 [mEh]      -7.68579613 [kcal/mol]     -32.15737100 [kJ/mol]
  Total SAPT2+                    -15.15943604 [mEh]      -9.51268973 [kcal/mol]     -39.80109384 [kJ/mol]

  Special recipe for scaled SAPT0 (see Manual):
    Electrostatics sSAPT0         -29.03625072 [mEh]     -18.22052241 [kcal/mol]     -76.23466577 [kJ/mol]
    Exchange sSAPT0                34.61147864 [mEh]      21.71903075 [kcal/mol]      90.87242464 [kJ/mol]
    Induction sSAPT0              -13.33515176 [mEh]      -8.36793407 [kcal/mol]     -35.01143613 [kJ/mol]
    Dispersion sSAPT0              -6.55243221 [mEh]      -4.11171329 [kcal/mol]     -17.20340839 [kJ/mol]
  Total sSAPT0                    -14.31235606 [mEh]      -8.98113902 [kcal/mol]     -37.57708565 [kJ/mol]
  --------------------------------------------------------------------------------------------------------

*** Psi4 exiting successfully. Buy a developer a beer!
