                               Psi4 1.9 release

  ==> Input File <==

--------------------------------------------------------------------------
MEMORY 60 GB

molecule dimer {
0 1
O      0.000000     0.000000     0.000000
H     -0.634478     0.334379     0.634478
H      0.397263     0.899651    -0.397263
--
-1 1
F      2.426389     0.000000     0.000000

units ang
no_reorient
no_com
symmetry c1
}

set {
basis        aug-cc-pVTZ
scf_type     df
}

energy("sapt2+")
--------------------------------------------------------------------------

  //              Dimer HF             //
    Molecular point group: c1
  Charge       = -1
  Multiplicity = 1
  Basis Set: AUG-CC-PVTZ
    Blend: AUG-CC-PVTZ
  Basis Set: (AUG-CC-PVTZ AUX)
    Blend: AUG-CC-PVTZ-JKFIT
  @DF-RHF Final Energy:  -175.48437918994330
    Total Energy =                       -175.4843791899432972
 Dipole X            :        -45.2750885           40.8186248           -4.4564637
 Dipole Y            :         -1.6319950            2.3319787            0.6999838
 Dipole Z            :         -0.2824953            0.4482714            0.1657761
 Magnitude           :                                                    4.5141475
  //            Monomer A HF           //
    Molecular point group: c1
  Multiplicity = 1
  Basis Set: AUG-CC-PVTZ
    Blend: AUG-CC-PVTZ
  Basis Set: (AUG-CC-PVTZ AUX)
    Blend: AUG-CC-PVTZ-JKFIT
  @DF-RHF Final Energy:   -76.04860733541487
    Total Energy =                        -76.0486073354148857
  //            Monomer B HF           //
    Molecular point group: c1

    Geometry (in Angstrom), charge = -1, multiplicity = 1:

       Center              X                  Y                   Z               Mass
    ------------   -----------------  -----------------  -----------------  -----------------
      Gh(O)           0.000000000000     0.000000000000     0.000000000000    15.994914619570
      Gh(H)          -0.634478000000     0.334379000000     0.634478000000     1.007825032230
      Gh(H)           0.397263000000     0.899651000000    -0.397263000000     1.007825032230
         F            2.426389000000     0.000000000000     0.000000000000    18.998403162730

  Charge       = -1
  Multiplicity = 1
  Basis Set: AUG-CC-PVTZ
    Blend: AUG-CC-PVTZ
  Basis Set: (AUG-CC-PVTZ AUX)
    Blend: AUG-CC-PVTZ-JKFIT

    Orbital Energies [Eh]
    ---------------------

    Doubly Occupied:

       1A    -25.833742     2A     -1.076024     3A     -0.181004
       4A     -0.180957     5A     -0.180945

  @DF-RHF Final Energy:   -99.45086598850611

   => Energetics <=

    Nuclear Repulsion Energy =              0.0000000000000000
    One-Electron Energy =                -143.9963896860311081
    Two-Electron Energy =                  44.5455236975249989
    Total Energy =                        -99.4508659885061093
 Dipole X            :        -45.8524033           41.2668962           -4.5855072
 Dipole Y            :         -0.0000713            0.0000000           -0.0000713
 Dipole Z            :         -0.0001486            0.0000000           -0.0001486
 Magnitude           :                                                    4.5855072

    SAPT Results
  --------------------------------------------------------------------------------------------------------
    Electrostatics                 -3.18731860 [mEh]      -2.00007262 [kcal/mol]      -8.36830382 [kJ/mol]
      Elst10,r                      1.83882290 [mEh]       1.15387879 [kcal/mol]       4.82782885 [kJ/mol]
      Elst12,r                     -5.02614149 [mEh]      -3.15395140 [kcal/mol]     -13.19613267 [kJ/mol]

    Exchange                       29.14644663 [mEh]      18.28967139 [kcal/mol]      76.52398508 [kJ/mol]
      Exch10                       22.49397057 [mEh]      14.11517963 [kcal/mol]      59.05791159 [kJ/mol]
      Exch10(S^2)                  22.31354038 [mEh]      14.00195798 [kcal/mol]      58.58419220 [kJ/mol]
      Exch11(S^2)                  -0.52319116 [mEh]      -0.32830741 [kcal/mol]      -1.37363820 [kJ/mol]
      Exch12(S^2)                   7.17566722 [mEh]       4.50279916 [kcal/mol]      18.83971169 [kJ/mol]

    Induction                     -11.53837907 [mEh]      -7.24044218 [kcal/mol]     -30.29401007 [kJ/mol]
      Ind20,r                     -18.44794909 [mEh]     -11.57626283 [kcal/mol]     -48.43508366 [kJ/mol]
      Ind22                        -5.67660518 [mEh]      -3.56212353 [kcal/mol]     -14.90392484 [kJ/mol]
      Exch-Ind20,r                 10.97427276 [mEh]       6.88646012 [kcal/mol]      28.81294915 [kJ/mol]
      Exch-Ind22                    3.37688560 [mEh]       2.11902770 [kcal/mol]       8.86601191 [kJ/mol]
      delta HF,r (2)               -1.76498315 [mEh]      -1.10754365 [kcal/mol]      -4.63396263 [kJ/mol]

    Dispersion                     -7.04030742 [mEh]      -4.41785960 [kcal/mol]     -18.48432459 [kJ/mol]
      Disp20                       -7.26012402 [mEh]      -4.55579660 [kcal/mol]     -19.06145298 [kJ/mol]
      Disp21                        0.32468246 [mEh]       0.20374132 [kcal/mol]       0.85245368 [kJ/mol]
      Disp22 (SDQ)                 -0.90934252 [mEh]      -0.57062105 [kcal/mol]      -2.38747847 [kJ/mol]
      Disp22 (T)                   -1.25595787 [mEh]      -0.78812546 [kcal/mol]      -3.29751693 [kJ/mol]
      Est. Disp22 (T)              -1.51145495 [mEh]      -0.94845230 [kcal/mol]      -3.96832444 [kJ/mol]
      Exch-Disp20                   2.31593162 [mEh]       1.45326903 [kcal/mol]       6.08047763 [kJ/mol]

  Total HF                         15.09413398 [mEh]       9.47171207 [kcal/mol]      39.62964330 [kJ/mol]
  Total SAPT0                      10.14994158 [mEh]       6.36918450 [kcal/mol]      26.64866794 [kJ/mol]
  Total SAPT2                       9.47655656 [mEh]       5.94662902 [kcal/mol]      24.88069582 [kJ/mol]
  Total SAPT2+                      7.38044154 [mEh]       4.63129699 [kcal/mol]      19.37734660 [kJ/mol]

  Special recipe for scaled SAPT0 (see Manual):
    Electrostatics sSAPT0           1.83882290 [mEh]       1.15387879 [kcal/mol]       4.82782885 [kJ/mol]
    Exchange sSAPT0                22.49397057 [mEh]      14.11517963 [kcal/mol]      59.05791159 [kJ/mol]
    Induction sSAPT0               -8.97028282 [mEh]      -5.62893745 [kcal/mol]     -23.55147431 [kJ/mol]
    Dispersion sSAPT0              -4.88755612 [mEh]      -3.06698777 [kcal/mol]     -12.83227682 [kJ/mol]
  Total sSAPT0                     10.47495452 [mEh]       6.57313320 [kcal/mol]      27.50198931 [kJ/mol]
  --------------------------------------------------------------------------------------------------------

*** Psi4 exiting successfully. Buy a developer a beer!
