                               Psi4 1.9 release

  ==> Input File <==

--------------------------------------------------------------------------
MEMORY 60 GB

molecule dimer {
0 1
O      0.000000     0.000000     0.000000
H      0.522003     0.609884    -0.522003
H      0.352290    -0.936372    -0.352290
--
-1 1
F      2.426389     0.000000     0.000000

units ang
no_reorient
no_com
symmetry c1
}

set {
basis        aug-cc-pVTZ
scf_type     df
}

energy("sapt2+")
--------------------------------------------------------------------------

  //              Dimer HF             //
    Molecular point group: c1
  Charge       = -1
  Multiplicity = 1
  Basis Set: AUG-CC-PVTZ
    Blend: AUG-CC-PVTZ
  Basis Set: (AUG-CC-PVTZ AUX)
    Blend: AUG-CC-PVTZ-JKFIT
  @DF-RHF Final Energy:  -175.50551551999499
    Total Energy =                       -175.5055155199949866
 Dipole X            :        -46.5866517           42.9190705           -3.6675812
 Dipole Y            :          0.4425726           -0.6169729           -0.1744003
 Dipole Z            :          1.1681727           -1.6521743           -0.4840016
 Magnitude           :                                                    3.7034882
  //            Monomer A HF           //
    Molecular point group: c1
  Multiplicity = 1
  Basis Set: AUG-CC-PVTZ
    Blend: AUG-CC-PVTZ
  Basis Set: (AUG-CC-PVTZ AUX)
    Blend: AUG-CC-PVTZ-JKFIT
  @DF-RHF Final Energy:   -76.04860481696204
    Total Energy =                        -76.0486048169620261
  //            Monomer B HF           //
    Molecular point group: c1

    Geometry (in Angstrom), charge = -1, multiplicity = 1:

       Center              X                  Y                   Z               Mass
    ------------   -----------------  -----------------  -----------------  -----------------
      Gh(O)           0.000000000000     0.000000000000     0.000000000000    15.994914619570
      Gh(H)           0.522003000000     0.609884000000    -0.522003000000     1.007825032230
      Gh(H)           0.352290000000    -0.936372000000    -0.352290000000     1.007825032230
         F            2.426389000000     0.000000000000     0.000000000000    18.998403162730

  Charge       = -1
  Multiplicity = 1
  Basis Set: AUG-CC-PVTZ
    Blend: AUG-CC-PVTZ
  Basis Set: (AUG-CC-PVTZ AUX)
    Blend: AUG-CC-PVTZ-JKFIT

    Orbital Energies [Eh]
    ---------------------

    Doubly Occupied:

       1A    -25.833752     2A     -1.076033     3A     -0.181023
       4A     -0.180963     5A     -0.180949

  @DF-RHF Final Energy:   -99.45087989426224

   => Energetics <=

    Nuclear Repulsion Energy =              0.0000000000000000
    One-Electron Energy =                -143.9963177906704175
    Two-Electron Energy =                  44.5454378964081670
    Total Energy =                        -99.4508798942622434
 Dipole X            :        -45.8529617           41.2668962           -4.5860656
 Dipole Y            :         -0.0000684            0.0000000           -0.0000684
 Dipole Z            :          0.0000198            0.0000000            0.0000198
 Magnitude           :                                                    4.5860656

    SAPT Results
  --------------------------------------------------------------------------------------------------------
    Electrostatics                -29.39393882 [mEh]     -18.44497508 [kcal/mol]     -77.17377574 [kJ/mol]
      Elst10,r                    -25.82133934 [mEh]     -16.20313506 [kcal/mol]     -67.79391711 [kJ/mol]
      Elst12,r                     -3.57259948 [mEh]      -2.24184002 [kcal/mol]      -9.37985864 [kJ/mol]

    Exchange                       39.09766316 [mEh]      24.53415404 [kcal/mol]     102.65090048 [kJ/mol]
      Exch10                       30.15167467 [mEh]      18.92046151 [kcal/mol]      79.16321094 [kJ/mol]
      Exch10(S^2)                  29.85730062 [mEh]      18.73573900 [kcal/mol]      78.39033198 [kJ/mol]
      Exch11(S^2)                  -0.20078264 [mEh]      -0.12599301 [kcal/mol]      -0.52715476 [kJ/mol]
      Exch12(S^2)                   9.14677113 [mEh]       5.73968554 [kcal/mol]      24.01484430 [kJ/mol]

    Induction                     -12.98243890 [mEh]      -8.14660340 [kcal/mol]     -34.08538863 [kJ/mol]
      Ind20,r                     -22.61766590 [mEh]     -14.19279963 [kcal/mol]     -59.38267364 [kJ/mol]
      Ind22                        -7.13285808 [mEh]      -4.47593602 [kcal/mol]     -18.72731631 [kJ/mol]
      Exch-Ind20,r                 14.30577053 [mEh]       8.97700654 [kcal/mol]      37.55979536 [kJ/mol]
      Exch-Ind22                    4.51156328 [mEh]       2.83104870 [kcal/mol]      11.84510776 [kJ/mol]
      delta HF,r (2)               -2.04924873 [mEh]      -1.28592299 [kcal/mol]      -5.38030180 [kJ/mol]

    Dispersion                     -8.91821816 [mEh]      -5.59626639 [kcal/mol]     -23.41477855 [kJ/mol]
      Disp20                       -9.10628059 [mEh]      -5.71427734 [kcal/mol]     -23.90853638 [kJ/mol]
      Disp21                        0.28443364 [mEh]       0.17848481 [kcal/mol]       0.74678043 [kJ/mol]
      Disp22 (SDQ)                 -1.16448349 [mEh]      -0.73072442 [kcal/mol]      -3.05735097 [kJ/mol]
      Disp22 (T)                   -1.62250376 [mEh]      -1.01813648 [kcal/mol]      -4.25988304 [kJ/mol]
      Est. Disp22 (T)              -1.93868291 [mEh]      -1.21654190 [kcal/mol]      -5.09001129 [kJ/mol]
      Exch-Disp20                   3.00679518 [mEh]       1.88679246 [kcal/mol]       7.89433966 [kJ/mol]

  Total HF                         -6.03080877 [mEh]      -3.78438964 [kcal/mol]     -15.83388625 [kJ/mol]
  Total SAPT0                     -12.13029417 [mEh]      -7.61187451 [kcal/mol]     -31.84808297 [kJ/mol]
  Total SAPT2                      -9.37819996 [mEh]      -5.88490932 [kcal/mol]     -24.62246061 [kJ/mol]
  Total SAPT2+                    -12.19693272 [mEh]      -7.65369083 [kcal/mol]     -32.02304244 [kJ/mol]

  Special recipe for scaled SAPT0 (see Manual):
    Electrostatics sSAPT0         -25.82133934 [mEh]     -16.20313506 [kcal/mol]     -67.79391711 [kJ/mol]
    Exchange sSAPT0                30.15167467 [mEh]      18.92046151 [kcal/mol]      79.16321094 [kJ/mol]
    Induction sSAPT0               -9.93382104 [mEh]      -6.23356682 [kcal/mol]     -26.08124356 [kJ/mol]
    Dispersion sSAPT0              -6.00967040 [mEh]      -3.77112511 [kcal/mol]     -15.77838745 [kJ/mol]
  Total sSAPT0                    -11.61315611 [mEh]      -7.28736548 [kcal/mol]     -30.49033717 [kJ/mol]
  --------------------------------------------------------------------------------------------------------

*** Psi4 exiting successfully. Buy a developer a beer!
