                               Psi4 1.9 release

  ==> Input File <==

--------------------------------------------------------------------------
MEMORY 60 GB

molecule dimer {
0 1
O      0.000000     0.000000     0.000000
H     -0.551663     0.555220     0.551663
H      0.548374     0.723587    -0.548374
--
-1 1
F      2.426389     0.000000     0.000000

units ang
no_reorient
no_com
symmetry c1
}

set {
basis        aug-cc-pVTZ
scf_type     df
}

energy("sapt2+")
--------------------------------------------------------------------------

  //              Dimer HF             //
    Molecular point group: c1
  Charge       = -1
  Multiplicity = 1
  Basis Set: AUG-CC-PVTZ
    Blend: AUG-CC-PVTZ
  Basis Set: (AUG-CC-PVTZ AUX)
    Blend: AUG-CC-PVTZ-JKFIT
  @DF-RHF Final Energy:  -175.49124132092575
    Total Energy =                       -175.4912413209257807
 Dipole X            :        -45.5181565           41.2606808           -4.2574757
 Dipole Y            :         -1.6848738            2.4165950            0.7317212
 Dipole Z            :          0.0252565            0.0062153            0.0314719
 Magnitude           :                                                    4.3200122
  //            Monomer A HF           //
    Molecular point group: c1
  Multiplicity = 1
  Basis Set: AUG-CC-PVTZ
    Blend: AUG-CC-PVTZ
  Basis Set: (AUG-CC-PVTZ AUX)
    Blend: AUG-CC-PVTZ-JKFIT
  @DF-RHF Final Energy:   -76.04860942389834
    Total Energy =                        -76.0486094238983412
  //            Monomer B HF           //
    Molecular point group: c1

    Geometry (in Angstrom), charge = -1, multiplicity = 1:

       Center              X                  Y                   Z               Mass
    ------------   -----------------  -----------------  -----------------  -----------------
      Gh(O)           0.000000000000     0.000000000000     0.000000000000    15.994914619570
      Gh(H)          -0.551663000000     0.555220000000     0.551663000000     1.007825032230
      Gh(H)           0.548374000000     0.723587000000    -0.548374000000     1.007825032230
         F            2.426389000000     0.000000000000     0.000000000000    18.998403162730

  Charge       = -1
  Multiplicity = 1
  Basis Set: AUG-CC-PVTZ
    Blend: AUG-CC-PVTZ
  Basis Set: (AUG-CC-PVTZ AUX)
    Blend: AUG-CC-PVTZ-JKFIT

    Orbital Energies [Eh]
    ---------------------

    Doubly Occupied:

       1A    -25.833738     2A     -1.076021     3A     -0.181006
       4A     -0.180953     5A     -0.180941

  @DF-RHF Final Energy:   -99.45087157936902

   => Energetics <=

    Nuclear Repulsion Energy =              0.0000000000000000
    One-Electron Energy =                -143.9964262978724605
    Two-Electron Energy =                  44.5455547185034391
    Total Energy =                        -99.4508715793690214
 Dipole X            :        -45.8524651           41.2668962           -4.5855689
 Dipole Y            :         -0.0000241            0.0000000           -0.0000241
 Dipole Z            :         -0.0001264            0.0000000           -0.0001264
 Magnitude           :                                                    4.5855689

    SAPT Results
  --------------------------------------------------------------------------------------------------------
    Electrostatics                -11.38459146 [mEh]      -7.14393899 [kcal/mol]     -29.89024075 [kJ/mol]
      Elst10,r                     -6.72347669 [mEh]      -4.21904532 [kcal/mol]     -17.65248562 [kJ/mol]
      Elst12,r                     -4.66111477 [mEh]      -2.92489367 [kcal/mol]     -12.23775513 [kJ/mol]

    Exchange                       32.81667769 [mEh]      20.59277615 [kcal/mol]      86.16017541 [kJ/mol]
      Exch10                       25.56130448 [mEh]      16.03996073 [kcal/mol]      67.11119568 [kJ/mol]
      Exch10(S^2)                  25.32345445 [mEh]      15.89070757 [kcal/mol]      66.48672049 [kJ/mol]
      Exch11(S^2)                  -0.43259353 [mEh]      -0.27145654 [kcal/mol]      -1.13577415 [kJ/mol]
      Exch12(S^2)                   7.68796674 [mEh]       4.82427196 [kcal/mol]      20.18475389 [kJ/mol]

    Induction                     -13.06907670 [mEh]      -8.20096944 [kcal/mol]     -34.31285615 [kJ/mol]
      Ind20,r                     -20.25561869 [mEh]     -12.71059262 [kcal/mol]     -53.18111954 [kJ/mol]
      Ind22                        -5.99344851 [mEh]      -3.76094572 [kcal/mol]     -15.73579690 [kJ/mol]
      Exch-Ind20,r                 11.90479343 [mEh]       7.47037066 [kcal/mol]      31.25603084 [kJ/mol]
      Exch-Ind22                    3.52251726 [mEh]       2.21041295 [kcal/mol]       9.24836779 [kJ/mol]
      delta HF,r (2)               -2.24732019 [mEh]      -1.41021471 [kcal/mol]      -5.90033835 [kJ/mol]

    Dispersion                     -7.69769826 [mEh]      -4.83037858 [kcal/mol]     -20.21030399 [kJ/mol]
      Disp20                       -7.95056147 [mEh]      -4.98905264 [kcal/mol]     -20.87419626 [kJ/mol]
      Disp21                        0.31932238 [mEh]       0.20037782 [kcal/mol]       0.83838078 [kJ/mol]
      Disp22 (SDQ)                 -0.95159455 [mEh]      -0.59713460 [kcal/mol]      -2.49841115 [kJ/mol]
      Disp22 (T)                   -1.36994661 [mEh]      -0.85965447 [kcal/mol]      -3.59679432 [kJ/mol]
      Est. Disp22 (T)              -1.64770455 [mEh]      -1.03395021 [kcal/mol]      -4.32604769 [kJ/mol]
      Exch-Disp20                   2.53283993 [mEh]       1.58938105 [kcal/mol]       6.64997033 [kJ/mol]

  Total HF                          8.23968234 [mEh]       5.17047873 [kcal/mol]      21.63328301 [kJ/mol]
  Total SAPT0                       2.82196081 [mEh]       1.77080714 [kcal/mol]       7.40905708 [kJ/mol]
  Total SAPT2                       2.94528800 [mEh]       1.84819612 [kcal/mol]       7.73285257 [kJ/mol]
  Total SAPT2+                      0.66531127 [mEh]       0.41748913 [kcal/mol]       1.74677451 [kJ/mol]

  Special recipe for scaled SAPT0 (see Manual):
    Electrostatics sSAPT0          -6.72347669 [mEh]      -4.21904532 [kcal/mol]     -17.65248562 [kJ/mol]
    Exchange sSAPT0                25.56130448 [mEh]      16.03996073 [kcal/mol]      67.11119568 [kJ/mol]
    Induction sSAPT0              -10.25953831 [mEh]      -6.43795749 [kcal/mol]     -26.93641413 [kJ/mol]
    Dispersion sSAPT0              -5.34568016 [mEh]      -3.35446494 [kcal/mol]     -14.03508133 [kJ/mol]
  Total sSAPT0                      3.23260932 [mEh]       2.02849297 [kcal/mol]       8.48721460 [kJ/mol]
  --------------------------------------------------------------------------------------------------------

*** Psi4 exiting successfully. Buy a developer a beer!
