                               Psi4 1.9 release

  ==> Input File <==

--------------------------------------------------------------------------
MEMORY 60 GB

molecule dimer {
0 1
O      0.000000     0.000000     0.000000
H      0.236442     0.897287    -0.236442
H      0.636149    -0.561815    -0.636149
--
-1 1
F      2.426389     0.000000     0.000000

units ang
no_reorient
no_com
symmetry c1
}

set {
basis        aug-cc-pVTZ
scf_type     df
}

energy("sapt2+")
--------------------------------------------------------------------------

  //              Dimer HF             //
    Molecular point group: c1
  Charge       = -1
  Multiplicity = 1
  Basis Set: AUG-CC-PVTZ
    Blend: AUG-CC-PVTZ
  Basis Set: (AUG-CC-PVTZ AUX)
    Blend: AUG-CC-PVTZ-JKFIT
  @DF-RHF Final Energy:  -175.50675146380243
    Total Energy =                       -175.5067514638024306
 Dipole X            :        -46.5492160           42.9158542           -3.6333619
 Dipole Y            :         -0.4326773            0.6339502            0.2012729
 Dipole Z            :          1.1662871           -1.6489580           -0.4826709
 Magnitude           :                                                    3.6708038
  //            Monomer A HF           //
    Molecular point group: c1
  Multiplicity = 1
  Basis Set: AUG-CC-PVTZ
    Blend: AUG-CC-PVTZ
  Basis Set: (AUG-CC-PVTZ AUX)
    Blend: AUG-CC-PVTZ-JKFIT
  @DF-RHF Final Energy:   -76.04860496570087
    Total Energy =                        -76.0486049657008749
  //            Monomer B HF           //
    Molecular point group: c1

    Geometry (in Angstrom), charge = -1, multiplicity = 1:

       Center              X                  Y                   Z               Mass
    ------------   -----------------  -----------------  -----------------  -----------------
      Gh(O)           0.000000000000     0.000000000000     0.000000000000    15.994914619570
      Gh(H)           0.236442000000     0.897287000000    -0.236442000000     1.007825032230
      Gh(H)           0.636149000000    -0.561815000000    -0.636149000000     1.007825032230
         F            2.426389000000     0.000000000000     0.000000000000    18.998403162730

  Charge       = -1
  Multiplicity = 1
  Basis Set: AUG-CC-PVTZ
    Blend: AUG-CC-PVTZ
  Basis Set: (AUG-CC-PVTZ AUX)
    Blend: AUG-CC-PVTZ-JKFIT

    Orbital Energies [Eh]
    ---------------------

    Doubly Occupied:

       1A    -25.833755     2A     -1.076034     3A     -0.181023
       4A     -0.180964     5A     -0.180949

  @DF-RHF Final Energy:   -99.45087952130655

   => Energetics <=

    Nuclear Repulsion Energy =              0.0000000000000000
    One-Electron Energy =                -143.9963108016352180
    Two-Electron Energy =                  44.5454312803286641
    Total Energy =                        -99.4508795213065468
 Dipole X            :        -45.8529878           41.2668962           -4.5860916
 Dipole Y            :          0.0000314            0.0000000            0.0000314
 Dipole Z            :          0.0000579            0.0000000            0.0000579
 Magnitude           :                                                    4.5860916

    SAPT Results
  --------------------------------------------------------------------------------------------------------
    Electrostatics                -31.35118686 [mEh]     -19.67316677 [kcal/mol]     -82.31252977 [kJ/mol]
      Elst10,r                    -27.72305731 [mEh]     -17.39648111 [kcal/mol]     -72.78687695 [kJ/mol]
      Elst12,r                     -3.62812955 [mEh]      -2.27668567 [kcal/mol]      -9.52565282 [kJ/mol]

    Exchange                       41.57911673 [mEh]      26.09128966 [kcal/mol]     109.16595594 [kJ/mol]
      Exch10                       32.37178821 [mEh]      20.31360378 [kcal/mol]      84.99211823 [kJ/mol]
      Exch10(S^2)                  32.00792697 [mEh]      20.08527741 [kcal/mol]      84.03680067 [kJ/mol]
      Exch11(S^2)                  -0.14436496 [mEh]      -0.09059038 [kcal/mol]      -0.37903015 [kJ/mol]
      Exch12(S^2)                   9.35169348 [mEh]       5.86827626 [kcal/mol]      24.55286786 [kJ/mol]

    Induction                     -14.69032260 [mEh]      -9.21831660 [kcal/mol]     -38.56943667 [kJ/mol]
      Ind20,r                     -23.88134205 [mEh]     -14.98576838 [kcal/mol]     -62.70045490 [kJ/mol]
      Ind22                        -7.19641871 [mEh]      -4.51582092 [kcal/mol]     -18.89419472 [kJ/mol]
      Exch-Ind20,r                 14.67377222 [mEh]       9.20793109 [kcal/mol]      38.52598367 [kJ/mol]
      Exch-Ind22                    4.42180380 [mEh]       2.77472377 [kcal/mol]      11.60944427 [kJ/mol]
      delta HF,r (2)               -2.70813787 [mEh]      -1.69938217 [kcal/mol]      -7.11021499 [kJ/mol]

    Dispersion                     -9.31408474 [mEh]      -5.84467642 [kcal/mol]     -24.45412613 [kJ/mol]
      Disp20                       -9.57329749 [mEh]      -6.00733487 [kcal/mol]     -25.13468909 [kJ/mol]
      Disp21                        0.31338750 [mEh]       0.19665362 [kcal/mol]       0.82279877 [kJ/mol]
      Disp22 (SDQ)                 -1.17651342 [mEh]      -0.73827332 [kcal/mol]      -3.08893556 [kJ/mol]
      Disp22 (T)                   -1.71869284 [mEh]      -1.07849604 [kcal/mol]      -4.51242742 [kJ/mol]
      Est. Disp22 (T)              -2.03324182 [mEh]      -1.27587850 [kcal/mol]      -5.33827565 [kJ/mol]
      Exch-Disp20                   3.15558048 [mEh]       1.98015665 [kcal/mol]       8.28497541 [kJ/mol]

  Total HF                         -7.26697680 [mEh]      -4.56009678 [kcal/mol]     -19.07944495 [kJ/mol]
  Total SAPT0                     -13.68469380 [mEh]      -8.58727501 [kcal/mol]     -35.92915863 [kJ/mol]
  Total SAPT2                     -10.88010974 [mEh]      -6.82737194 [kcal/mol]     -28.56572419 [kJ/mol]
  Total SAPT2+                    -13.77647748 [mEh]      -8.64487013 [kcal/mol]     -36.17013664 [kJ/mol]

  Special recipe for scaled SAPT0 (see Manual):
    Electrostatics sSAPT0         -27.72305731 [mEh]     -17.39648111 [kcal/mol]     -72.78687695 [kJ/mol]
    Exchange sSAPT0                32.37178821 [mEh]      20.31360378 [kcal/mol]      84.99211823 [kJ/mol]
    Induction sSAPT0              -11.40956972 [mEh]      -7.15961309 [kcal/mol]     -29.95582118 [kJ/mol]
    Dispersion sSAPT0              -6.30887253 [mEh]      -3.95887728 [kcal/mol]     -16.56394254 [kJ/mol]
  Total sSAPT0                    -13.06971136 [mEh]      -8.20136770 [kcal/mol]     -34.31452244 [kJ/mol]
  --------------------------------------------------------------------------------------------------------

*** Psi4 exiting successfully. Buy a developer a beer!
