                               Psi4 1.9 release

  ==> Input File <==

--------------------------------------------------------------------------
MEMORY 60 GB

molecule dimer {
0 1
O      0.000000     0.000000     0.000000
H      0.124276     0.941808    -0.124276
H      0.650104    -0.362740    -0.650104
--
-1 1
Cl     3.070352     0.000000     0.000000

units ang
no_reorient
no_com
symmetry c1
}

set {
basis        aug-cc-pVTZ
scf_type     df
}

energy("sapt2+")
--------------------------------------------------------------------------

  //              Dimer HF             //
    Molecular point group: c1
  Charge       = -1
  Multiplicity = 1
  Basis Set: AUG-CC-PVTZ
    Blend: AUG-CC-PVTZ
  Basis Set: (AUG-CC-PVTZ AUX)
    Blend: AUG-CC-PVTZ-JKFIT
  @DF-RHF Final Energy:  -535.63784996951915
    Total Energy =                       -535.6378499695192659
 Dipole X            :       -105.1258250          100.0994807           -5.0263443
 Dipole Y            :         -0.7461181            1.0942799            0.3481619
 Dipole Z            :          1.0727803           -1.4633661           -0.3905858
 Magnitude           :                                                    5.0535048
  //            Monomer A HF           //
    Molecular point group: c1
  Multiplicity = 1
  Basis Set: AUG-CC-PVTZ
    Blend: AUG-CC-PVTZ
  Basis Set: (AUG-CC-PVTZ AUX)
    Blend: AUG-CC-PVTZ-JKFIT
  @DF-RHF Final Energy:   -76.05822963906773
    Total Energy =                        -76.0582296390677470
  //            Monomer B HF           //
    Molecular point group: c1

    Geometry (in Angstrom), charge = -1, multiplicity = 1:

       Center              X                  Y                   Z               Mass
    ------------   -----------------  -----------------  -----------------  -----------------
      Gh(O)           0.000000000000     0.000000000000     0.000000000000    15.994914619570
      Gh(H)           0.124276000000     0.941808000000    -0.124276000000     1.007825032230
      Gh(H)           0.650104000000    -0.362740000000    -0.650104000000     1.007825032230
         CL           3.070352000000     0.000000000000     0.000000000000    34.968852682000

  Charge       = -1
  Multiplicity = 1
  Basis Set: AUG-CC-PVTZ
    Blend: AUG-CC-PVTZ
  Basis Set: (AUG-CC-PVTZ AUX)
    Blend: AUG-CC-PVTZ-JKFIT

    Orbital Energies [Eh]
    ---------------------

    Doubly Occupied:

       1A   -104.506182     2A    -10.229791     3A     -7.695840
       4A     -7.695838     5A     -7.695815     6A     -0.733502
       7A     -0.150337     8A     -0.150327     9A     -0.150326

  @DF-RHF Final Energy:  -459.57349855452560

   => Energetics <=

    Nuclear Repulsion Energy =              0.0000000000000000
    One-Electron Energy =                -641.1310821196515235
    Two-Electron Energy =                 181.5575835651259240
    Total Energy =                       -459.5734985545255995
 Dipole X            :       -104.4382807           98.6361146           -5.8021661
 Dipole Y            :          0.0000143            0.0000000            0.0000143
 Dipole Z            :          0.0002004            0.0000000            0.0002004
 Magnitude           :                                                    5.8021661

    SAPT Results
  --------------------------------------------------------------------------------------------------------
    Electrostatics                -17.69228502 [mEh]     -11.10207646 [kcal/mol]     -46.45108792 [kJ/mol]
      Elst10,r                    -17.06393452 [mEh]     -10.70778057 [kcal/mol]     -44.80135392 [kJ/mol]
      Elst12,r                     -0.62835050 [mEh]      -0.39429589 [kcal/mol]      -1.64973401 [kJ/mol]

    Exchange                       18.34239006 [mEh]      11.51002353 [kcal/mol]      48.15793846 [kJ/mol]
      Exch10                       16.14329842 [mEh]      10.13007270 [kcal/mol]      42.38422417 [kJ/mol]
      Exch10(S^2)                  15.99511378 [mEh]      10.03708543 [kcal/mol]      41.99516544 [kJ/mol]
      Exch11(S^2)                   0.47001600 [mEh]       0.29493949 [kcal/mol]       1.23402683 [kJ/mol]
      Exch12(S^2)                   1.72907564 [mEh]       1.08501134 [kcal/mol]       4.53968747 [kJ/mol]

    Induction                      -5.81747385 [mEh]      -3.65051995 [kcal/mol]     -15.27377548 [kJ/mol]
      Ind20,r                     -13.66566933 [mEh]      -8.57533697 [kcal/mol]     -35.87920987 [kJ/mol]
      Ind22                        -2.14818065 [mEh]      -1.34800371 [kcal/mol]      -5.64004753 [kJ/mol]
      Exch-Ind20,r                  9.74485525 [mEh]       6.11498899 [kcal/mol]      25.58511393 [kJ/mol]
      Exch-Ind22                    1.53184663 [mEh]       0.96124827 [kcal/mol]       4.02186277 [kJ/mol]
      delta HF,r (2)               -1.28032575 [mEh]      -0.80341654 [kcal/mol]      -3.36149479 [kJ/mol]

    Dispersion                     -5.85665101 [mEh]      -3.67510399 [kcal/mol]     -15.37663510 [kJ/mol]
      Disp20                       -6.82220339 [mEh]      -4.28099726 [kcal/mol]     -17.91169255 [kJ/mol]
      Disp21                        0.41735929 [mEh]       0.26189691 [kcal/mol]       1.09577668 [kJ/mol]
      Disp22 (SDQ)                 -0.05491511 [mEh]      -0.03445975 [kcal/mol]      -0.14417961 [kJ/mol]
      Disp22 (T)                   -1.04072397 [mEh]      -0.65306415 [kcal/mol]      -2.73242041 [kJ/mol]
      Est. Disp22 (T)              -1.23703841 [mEh]      -0.77625332 [kcal/mol]      -3.24784391 [kJ/mol]
      Exch-Disp20                   1.84014662 [mEh]       1.15470944 [kcal/mol]       4.83130429 [kJ/mol]

  Total HF                         -6.12177593 [mEh]      -3.84147239 [kcal/mol]     -16.07272048 [kJ/mol]
  Total SAPT0                     -11.10383270 [mEh]      -6.96776021 [kcal/mol]     -29.15310873 [kJ/mol]
  Total SAPT2                     -10.14942558 [mEh]      -6.36886071 [kcal/mol]     -26.64731319 [kJ/mol]
  Total SAPT2+                    -11.02401981 [mEh]      -6.91767687 [kcal/mol]     -28.94356004 [kJ/mol]

  Special recipe for scaled SAPT0 (see Manual):
    Electrostatics sSAPT0         -17.06393452 [mEh]     -10.70778057 [kcal/mol]     -44.80135392 [kJ/mol]
    Exchange sSAPT0                16.14329842 [mEh]      10.13007270 [kcal/mol]      42.38422417 [kJ/mol]
    Induction sSAPT0               -4.92778310 [mEh]      -3.09223058 [kcal/mol]     -12.93789275 [kJ/mol]
    Dispersion sSAPT0              -4.93043810 [mEh]      -3.09389662 [kcal/mol]     -12.94486346 [kJ/mol]
  Total sSAPT0                    -10.77885731 [mEh]      -6.76383508 [kcal/mol]     -28.29988596 [kJ/mol]
  --------------------------------------------------------------------------------------------------------

*** Psi4 exiting successfully. Buy a developer a beer!
