                               Psi4 1.9 release

  ==> Input File <==

--------------------------------------------------------------------------
MEMORY 60 GB

molecule dimer {
0 1
O      0.000000     0.000000     0.000000
H     -0.225353     0.903506     0.225353
H      0.691255     0.145551    -0.691255
--
-1 1
Cl     3.070352     0.000000     0.000000

units ang
no_reorient
no_com
symmetry c1
}

set {
basis        aug-cc-pVTZ
scf_type     df
}

energy("sapt2+")
--------------------------------------------------------------------------

  //              Dimer HF             //
    Molecular point group: c1
  Charge       = -1
  Multiplicity = 1
  Basis Set: AUG-CC-PVTZ
    Blend: AUG-CC-PVTZ
  Basis Set: (AUG-CC-PVTZ AUX)
    Blend: AUG-CC-PVTZ-JKFIT
  @DF-RHF Final Energy:  -535.63509569489281
    Total Energy =                       -535.6350956948928115
 Dipole X            :       -104.7463754           99.5165418           -5.2298336
 Dipole Y            :         -1.3810767            1.9824304            0.6013537
 Dipole Z            :          0.6785637           -0.8804272           -0.2018635
 Magnitude           :                                                    5.2681623
  //            Monomer A HF           //
    Molecular point group: c1
  Multiplicity = 1
  Basis Set: AUG-CC-PVTZ
    Blend: AUG-CC-PVTZ
  Basis Set: (AUG-CC-PVTZ AUX)
    Blend: AUG-CC-PVTZ-JKFIT
  @DF-RHF Final Energy:   -76.05823477418183
    Total Energy =                        -76.0582347741818126
  //            Monomer B HF           //
    Molecular point group: c1

    Geometry (in Angstrom), charge = -1, multiplicity = 1:

       Center              X                  Y                   Z               Mass
    ------------   -----------------  -----------------  -----------------  -----------------
      Gh(O)           0.000000000000     0.000000000000     0.000000000000    15.994914619570
      Gh(H)          -0.225353000000     0.903506000000     0.225353000000     1.007825032230
      Gh(H)           0.691255000000     0.145551000000    -0.691255000000     1.007825032230
         CL           3.070352000000     0.000000000000     0.000000000000    34.968852682000

  Charge       = -1
  Multiplicity = 1
  Basis Set: AUG-CC-PVTZ
    Blend: AUG-CC-PVTZ
  Basis Set: (AUG-CC-PVTZ AUX)
    Blend: AUG-CC-PVTZ-JKFIT

    Orbital Energies [Eh]
    ---------------------

    Doubly Occupied:

       1A   -104.506174     2A    -10.229789     3A     -7.695838
       4A     -7.695837     5A     -7.695813     6A     -0.733503
       7A     -0.150338     8A     -0.150328     9A     -0.150326

  @DF-RHF Final Energy:  -459.57349779031699

   => Energetics <=

    Nuclear Repulsion Energy =              0.0000000000000000
    One-Electron Energy =                -641.1311035952738848
    Two-Electron Energy =                 181.5576058049568928
    Total Energy =                       -459.5734977903169920
 Dipole X            :       -104.4382851           98.6361146           -5.8021705
 Dipole Y            :         -0.0001237            0.0000000           -0.0001237
 Dipole Z            :          0.0001975            0.0000000            0.0001975
 Magnitude           :                                                    5.8021705

    SAPT Results
  --------------------------------------------------------------------------------------------------------
    Electrostatics                -14.45594497 [mEh]      -9.07124242 [kcal/mol]     -37.95407828 [kJ/mol]
      Elst10,r                    -13.56718253 [mEh]      -8.51353557 [kcal/mol]     -35.62063282 [kJ/mol]
      Elst12,r                     -0.88876244 [mEh]      -0.55770685 [kcal/mol]      -2.33344546 [kJ/mol]

    Exchange                       17.95976492 [mEh]      11.26992263 [kcal/mol]      47.15335629 [kJ/mol]
      Exch10                       15.92848792 [mEh]       9.99527708 [kcal/mol]      41.82023928 [kJ/mol]
      Exch10(S^2)                  15.78001956 [mEh]       9.90211177 [kcal/mol]      41.43043565 [kJ/mol]
      Exch11(S^2)                   0.39062249 [mEh]       0.24511931 [kcal/mol]       1.02557920 [kJ/mol]
      Exch12(S^2)                   1.64065450 [mEh]       1.02952625 [kcal/mol]       4.30753781 [kJ/mol]

    Induction                      -6.33845415 [mEh]      -3.97744003 [kcal/mol]     -16.64160909 [kJ/mol]
      Ind20,r                     -13.50246471 [mEh]      -8.47292452 [kcal/mol]     -35.45071621 [kJ/mol]
      Ind22                        -1.98109393 [mEh]      -1.24315521 [kcal/mol]      -5.20136139 [kJ/mol]
      Exch-Ind20,r                  9.31752367 [mEh]       5.84683437 [kcal/mol]      24.46315501 [kJ/mol]
      Exch-Ind22                    1.36707556 [mEh]       0.85785287 [kcal/mol]       3.58925640 [kJ/mol]
      delta HF,r (2)               -1.53949475 [mEh]      -0.96604754 [kcal/mol]      -4.04194290 [kJ/mol]

    Dispersion                     -5.68216526 [mEh]      -3.56561253 [kcal/mol]     -14.91852282 [kJ/mol]
      Disp20                       -6.66833531 [mEh]      -4.18444358 [kcal/mol]     -17.50771195 [kJ/mol]
      Disp21                        0.42585377 [mEh]       0.26722727 [kcal/mol]       1.11807891 [kJ/mol]
      Disp22 (SDQ)                 -0.02332912 [mEh]      -0.01463924 [kcal/mol]      -0.06125058 [kJ/mol]
      Disp22 (T)                   -1.00574111 [mEh]      -0.63111207 [kcal/mol]      -2.64057291 [kJ/mol]
      Est. Disp22 (T)              -1.19135322 [mEh]      -0.74758543 [kcal/mol]      -3.12789746 [kJ/mol]
      Exch-Disp20                   1.77499863 [mEh]       1.11382846 [kcal/mol]       4.66025826 [kJ/mol]

  Total HF                         -3.36313039 [mEh]      -2.11039618 [kcal/mol]      -8.82989763 [kJ/mol]
  Total SAPT0                      -8.25646708 [mEh]      -5.18101131 [kcal/mol]     -21.67735132 [kJ/mol]
  Total SAPT2                      -7.72797089 [mEh]      -4.84937494 [kcal/mol]     -20.28978477 [kJ/mol]
  Total SAPT2+                     -8.51679946 [mEh]      -5.34437235 [kcal/mol]     -22.36085390 [kJ/mol]

  Special recipe for scaled SAPT0 (see Manual):
    Electrostatics sSAPT0         -13.56718253 [mEh]      -8.51353557 [kcal/mol]     -35.62063282 [kJ/mol]
    Exchange sSAPT0                15.92848792 [mEh]       9.99527708 [kcal/mol]      41.82023928 [kJ/mol]
    Induction sSAPT0               -5.45895821 [mEh]      -3.42554799 [kcal/mol]     -14.33249281 [kJ/mol]
    Dispersion sSAPT0              -4.84276291 [mEh]      -3.03887960 [kcal/mol]     -12.71467227 [kJ/mol]
  Total sSAPT0                     -7.94041572 [mEh]      -4.98268609 [kcal/mol]     -20.84755861 [kJ/mol]
  --------------------------------------------------------------------------------------------------------

*** Psi4 exiting successfully. Buy a developer a beer!
