                               Psi4 1.9 release

  ==> Input File <==

--------------------------------------------------------------------------
MEMORY 60 GB

molecule dimer {
0 1
O      0.000000     0.000000     0.000000
H      0.292404     0.864229    -0.292404
H      0.561567    -0.588334    -0.561567
--
-1 1
Cl     3.070352     0.000000     0.000000

units ang
no_reorient
no_com
symmetry c1
}

set {
basis        aug-cc-pVTZ
scf_type     df
}

energy("sapt2+")
--------------------------------------------------------------------------

  //              Dimer HF             //
    Molecular point group: c1
  Charge       = -1
  Multiplicity = 1
  Basis Set: AUG-CC-PVTZ
    Blend: AUG-CC-PVTZ
  Basis Set: (AUG-CC-PVTZ AUX)
    Blend: AUG-CC-PVTZ-JKFIT
  @DF-RHF Final Energy:  -535.63802543640168
    Total Energy =                       -535.6380254364016764
 Dipole X            :       -105.2403234          100.2498859           -4.9904375
 Dipole Y            :         -0.3505833            0.5213660            0.1707827
 Dipole Z            :          1.1691331           -1.6137713           -0.4446382
 Magnitude           :                                                    5.0131164
  //            Monomer A HF           //
    Molecular point group: c1
  Multiplicity = 1
  Basis Set: AUG-CC-PVTZ
    Blend: AUG-CC-PVTZ
  Basis Set: (AUG-CC-PVTZ AUX)
    Blend: AUG-CC-PVTZ-JKFIT
  @DF-RHF Final Energy:   -76.05822496547412
    Total Energy =                        -76.0582249654741247
  //            Monomer B HF           //
    Molecular point group: c1

    Geometry (in Angstrom), charge = -1, multiplicity = 1:

       Center              X                  Y                   Z               Mass
    ------------   -----------------  -----------------  -----------------  -----------------
      Gh(O)           0.000000000000     0.000000000000     0.000000000000    15.994914619570
      Gh(H)           0.292404000000     0.864229000000    -0.292404000000     1.007825032230
      Gh(H)           0.561567000000    -0.588334000000    -0.561567000000     1.007825032230
         CL           3.070352000000     0.000000000000     0.000000000000    34.968852682000

  Charge       = -1
  Multiplicity = 1
  Basis Set: AUG-CC-PVTZ
    Blend: AUG-CC-PVTZ
  Basis Set: (AUG-CC-PVTZ AUX)
    Blend: AUG-CC-PVTZ-JKFIT

    Orbital Energies [Eh]
    ---------------------

    Doubly Occupied:

       1A   -104.506185     2A    -10.229793     3A     -7.695841
       4A     -7.695838     5A     -7.695817     6A     -0.733502
       7A     -0.150337     8A     -0.150327     9A     -0.150326

  @DF-RHF Final Energy:  -459.57349783256973

   => Energetics <=

    Nuclear Repulsion Energy =              0.0000000000000000
    One-Electron Energy =                -641.1310668451416177
    Two-Electron Energy =                 181.5575690125718324
    Total Energy =                       -459.5734978325697853
 Dipole X            :       -104.4381585           98.6361146           -5.8020438
 Dipole Y            :          0.0000064            0.0000000            0.0000064
 Dipole Z            :          0.0001763            0.0000000            0.0001763
 Magnitude           :                                                    5.8020438

    SAPT Results
  --------------------------------------------------------------------------------------------------------
    Electrostatics                -17.81329596 [mEh]     -11.17801198 [kcal/mol]     -46.76880211 [kJ/mol]
      Elst10,r                    -17.24779003 [mEh]     -10.82315164 [kcal/mol]     -45.28406647 [kJ/mol]
      Elst12,r                     -0.56550594 [mEh]      -0.35486033 [kcal/mol]      -1.48473563 [kJ/mol]

    Exchange                       17.75359520 [mEh]      11.14054918 [kcal/mol]      46.61205777 [kJ/mol]
      Exch10                       15.55873801 [mEh]       9.76325550 [kcal/mol]      40.84946102 [kJ/mol]
      Exch10(S^2)                  15.42575150 [mEh]       9.67980520 [kcal/mol]      40.50030497 [kJ/mol]
      Exch11(S^2)                   0.46112957 [mEh]       0.28936317 [kcal/mol]       1.21069551 [kJ/mol]
      Exch12(S^2)                   1.73372762 [mEh]       1.08793051 [kcal/mol]       4.55190125 [kJ/mol]

    Induction                      -5.20076595 [mEh]      -3.26352990 [kcal/mol]     -13.65460912 [kJ/mol]
      Ind20,r                     -13.29126127 [mEh]      -8.34039236 [kcal/mol]     -34.89620165 [kJ/mol]
      Ind22                        -2.16618468 [mEh]      -1.35930141 [kcal/mol]      -5.68731709 [kJ/mol]
      Exch-Ind20,r                  9.68844860 [mEh]       6.07959329 [kcal/mol]      25.43701830 [kJ/mol]
      Exch-Ind22                    1.57900507 [mEh]       0.99084064 [kcal/mol]       4.14567724 [kJ/mol]
      delta HF,r (2)               -1.01077368 [mEh]      -0.63427006 [kcal/mol]      -2.65378593 [kJ/mol]

    Dispersion                     -5.77008361 [mEh]      -3.62078213 [kcal/mol]     -15.14935244 [kJ/mol]
      Disp20                       -6.70715882 [mEh]      -4.20880570 [kcal/mol]     -17.60964304 [kJ/mol]
      Disp21                        0.40855864 [mEh]       0.25637441 [kcal/mol]       1.07267055 [kJ/mol]
      Disp22 (SDQ)                 -0.07025098 [mEh]      -0.04408316 [kcal/mol]      -0.18444393 [kJ/mol]
      Disp22 (T)                   -1.03682727 [mEh]      -0.65061893 [kcal/mol]      -2.72218962 [kJ/mol]
      Est. Disp22 (T)              -1.22178734 [mEh]      -0.76668313 [kcal/mol]      -3.20780223 [kJ/mol]
      Exch-Disp20                   1.82055489 [mEh]       1.14241544 [kcal/mol]       4.77986621 [kJ/mol]

  Total HF                         -6.30263836 [mEh]      -3.95496528 [kcal/mol]     -16.54757473 [kJ/mol]
  Total SAPT0                     -11.18924228 [mEh]      -7.02135554 [kcal/mol]     -29.37735156 [kJ/mol]
  Total SAPT2                     -10.14707064 [mEh]      -6.36738296 [kcal/mol]     -26.64113029 [kJ/mol]
  Total SAPT2+                    -11.03055033 [mEh]      -6.92177483 [kcal/mol]     -28.96070590 [kJ/mol]

  Special recipe for scaled SAPT0 (see Manual):
    Electrostatics sSAPT0         -17.24779003 [mEh]     -10.82315164 [kcal/mol]     -45.28406647 [kJ/mol]
    Exchange sSAPT0                15.55873801 [mEh]       9.76325550 [kcal/mol]      40.84946102 [kJ/mol]
    Induction sSAPT0               -4.36084548 [mEh]      -2.73647185 [kcal/mol]     -11.44939822 [kJ/mol]
    Dispersion sSAPT0              -4.83911143 [mEh]      -3.03658826 [kcal/mol]     -12.70508530 [kJ/mol]
  Total sSAPT0                    -10.88900892 [mEh]      -6.83295626 [kcal/mol]     -28.58908898 [kJ/mol]
  --------------------------------------------------------------------------------------------------------

*** Psi4 exiting successfully. Buy a developer a beer!
