                               Psi4 1.9 release

  ==> Input File <==

--------------------------------------------------------------------------
MEMORY 60 GB

molecule dimer {
0 1
O      0.000000     0.000000     0.000000
H     -0.383028     0.790235     0.383028
H      0.641063     0.393609    -0.641063
--
-1 1
Cl     3.070352     0.000000     0.000000

units ang
no_reorient
no_com
symmetry c1
}

set {
basis        aug-cc-pVTZ
scf_type     df
}

energy("sapt2+")
--------------------------------------------------------------------------

  //              Dimer HF             //
    Molecular point group: c1
  Charge       = -1
  Multiplicity = 1
  Basis Set: AUG-CC-PVTZ
    Blend: AUG-CC-PVTZ
  Basis Set: (AUG-CC-PVTZ AUX)
    Blend: AUG-CC-PVTZ-JKFIT
  @DF-RHF Final Energy:  -535.63206486284480
    Total Energy =                       -535.6320648628447998
 Dipole X            :       -104.5228423           99.1237301           -5.3991122
 Dipole Y            :         -1.5701236            2.2371409            0.6670173
 Dipole Z            :          0.4021722           -0.4876155           -0.0854433
 Magnitude           :                                                    5.4408295
  //            Monomer A HF           //
    Molecular point group: c1
  Multiplicity = 1
  Basis Set: AUG-CC-PVTZ
    Blend: AUG-CC-PVTZ
  Basis Set: (AUG-CC-PVTZ AUX)
    Blend: AUG-CC-PVTZ-JKFIT
  @DF-RHF Final Energy:   -76.05823252704123
    Total Energy =                        -76.0582325270412412
  //            Monomer B HF           //
    Molecular point group: c1

    Geometry (in Angstrom), charge = -1, multiplicity = 1:

       Center              X                  Y                   Z               Mass
    ------------   -----------------  -----------------  -----------------  -----------------
      Gh(O)           0.000000000000     0.000000000000     0.000000000000    15.994914619570
      Gh(H)          -0.383028000000     0.790235000000     0.383028000000     1.007825032230
      Gh(H)           0.641063000000     0.393609000000    -0.641063000000     1.007825032230
         CL           3.070352000000     0.000000000000     0.000000000000    34.968852682000

  Charge       = -1
  Multiplicity = 1
  Basis Set: AUG-CC-PVTZ
    Blend: AUG-CC-PVTZ
  Basis Set: (AUG-CC-PVTZ AUX)
    Blend: AUG-CC-PVTZ-JKFIT

    Orbital Energies [Eh]
    ---------------------

    Doubly Occupied:

       1A   -104.506165     2A    -10.229788     3A     -7.695835
       4A     -7.695834     5A     -7.695811     6A     -0.733503
       7A     -0.150338     8A     -0.150328     9A     -0.150327

  @DF-RHF Final Energy:  -459.57349689120639

   => Energetics <=

    Nuclear Repulsion Energy =              0.0000000000000000
    One-Electron Energy =                -641.1311357259222632
    Two-Electron Energy =                 181.5576388347158741
    Total Energy =                       -459.5734968912063891
 Dipole X            :       -104.4381978           98.6361146           -5.8020832
 Dipole Y            :         -0.0001849            0.0000000           -0.0001849
 Dipole Z            :          0.0001440            0.0000000            0.0001440
 Magnitude           :                                                    5.8020832

    SAPT Results
  --------------------------------------------------------------------------------------------------------
    Electrostatics                -10.83503816 [mEh]      -6.79908910 [kcal/mol]     -28.44738878 [kJ/mol]
      Elst10,r                     -9.74742768 [mEh]      -6.11660321 [kcal/mol]     -25.59186784 [kJ/mol]
      Elst12,r                     -1.08761049 [mEh]      -0.68248588 [kcal/mol]      -2.85552094 [kJ/mol]

    Exchange                       16.53592632 [mEh]      10.37645042 [kcal/mol]      43.41506856 [kJ/mol]
      Exch10                       14.67869894 [mEh]       9.21102265 [kcal/mol]      38.53891876 [kJ/mol]
      Exch10(S^2)                  14.55458260 [mEh]       9.13313847 [kcal/mol]      38.21305134 [kJ/mol]
      Exch11(S^2)                   0.29552386 [mEh]       0.18544402 [kcal/mol]       0.77589779 [kJ/mol]
      Exch12(S^2)                   1.56170351 [mEh]       0.97998375 [kcal/mol]       4.10025201 [kJ/mol]

    Induction                      -5.83577195 [mEh]      -3.66200218 [kcal/mol]     -15.32181713 [kJ/mol]
      Ind20,r                     -12.66656900 [mEh]      -7.94839205 [kcal/mol]     -33.25607233 [kJ/mol]
      Ind22                        -1.84109971 [mEh]      -1.15530751 [kcal/mol]      -4.83380662 [kJ/mol]
      Exch-Ind20,r                  8.75152403 [mEh]       5.49166424 [kcal/mol]      22.97712318 [kJ/mol]
      Exch-Ind22                    1.27204363 [mEh]       0.79821943 [kcal/mol]       3.33975008 [kJ/mol]
      delta HF,r (2)               -1.35167089 [mEh]      -0.84818629 [kcal/mol]      -3.54881144 [kJ/mol]

    Dispersion                     -5.34961772 [mEh]      -3.35693580 [kcal/mol]     -14.04541938 [kJ/mol]
      Disp20                       -6.30353065 [mEh]      -3.95552520 [kcal/mol]     -16.54991744 [kJ/mol]
      Disp21                        0.42281883 [mEh]       0.26532282 [kcal/mol]       1.11011067 [kJ/mol]
      Disp22 (SDQ)                 -0.01899576 [mEh]      -0.01192002 [kcal/mol]      -0.04987335 [kJ/mol]
      Disp22 (T)                   -0.94792150 [mEh]      -0.59482972 [kcal/mol]      -2.48876757 [kJ/mol]
      Est. Disp22 (T)              -1.12234749 [mEh]      -0.70428368 [kcal/mol]      -2.94672292 [kJ/mol]
      Exch-Disp20                   1.67243735 [mEh]       1.04947028 [kcal/mol]       4.39098366 [kJ/mol]

  Total HF                         -0.33544460 [mEh]      -0.21049466 [kcal/mol]      -0.88070967 [kJ/mol]
  Total SAPT0                      -4.96653790 [mEh]      -3.11654958 [kcal/mol]     -13.03964345 [kJ/mol]
  Total SAPT2                      -4.76597709 [mEh]      -2.99069578 [kcal/mol]     -12.51307113 [kJ/mol]
  Total SAPT2+                     -5.48450151 [mEh]      -3.44157666 [kcal/mol]     -14.39955673 [kJ/mol]

  Special recipe for scaled SAPT0 (see Manual):
    Electrostatics sSAPT0          -9.74742768 [mEh]      -6.11660321 [kcal/mol]     -25.59186784 [kJ/mol]
    Exchange sSAPT0                14.67869894 [mEh]       9.21102265 [kcal/mol]      38.53891876 [kJ/mol]
    Induction sSAPT0               -5.04091145 [mEh]      -3.16321969 [kcal/mol]     -13.23491120 [kJ/mol]
    Dispersion sSAPT0              -4.58794153 [mEh]      -2.87897678 [kcal/mol]     -12.04563883 [kJ/mol]
  Total sSAPT0                     -4.69758172 [mEh]      -2.94777703 [kcal/mol]     -12.33349911 [kJ/mol]
  --------------------------------------------------------------------------------------------------------

*** Psi4 exiting successfully. Buy a developer a beer!
