                               Psi4 1.9 release

  ==> Input File <==

--------------------------------------------------------------------------
MEMORY 60 GB

molecule dimer {
0 1
O      0.000000     0.000000     0.000000
H      0.558780     0.541683    -0.558780
H      0.278323    -0.906600    -0.278323
--
-1 1
Cl     3.070352     0.000000     0.000000

units ang
no_reorient
no_com
symmetry c1
}

set {
basis        aug-cc-pVTZ
scf_type     df
}

energy("sapt2+")
--------------------------------------------------------------------------

  //              Dimer HF             //
    Molecular point group: c1
  Charge       = -1
  Multiplicity = 1
  Basis Set: AUG-CC-PVTZ
    Blend: AUG-CC-PVTZ
  Basis Set: (AUG-CC-PVTZ AUX)
    Blend: AUG-CC-PVTZ-JKFIT
  @DF-RHF Final Energy:  -535.63785415950440
    Total Energy =                       -535.6378541595043998
 Dipole X            :       -105.2223102          100.2180100           -5.0043002
 Dipole Y            :          0.4749077           -0.6895932           -0.2146855
 Dipole Z            :          1.1465326           -1.5818954           -0.4353628
 Magnitude           :                                                    5.0277879
  //            Monomer A HF           //
    Molecular point group: c1
  Multiplicity = 1
  Basis Set: AUG-CC-PVTZ
    Blend: AUG-CC-PVTZ
  Basis Set: (AUG-CC-PVTZ AUX)
    Blend: AUG-CC-PVTZ-JKFIT
  @DF-RHF Final Energy:   -76.05822584673072
    Total Energy =                        -76.0582258467307213
  //            Monomer B HF           //
    Molecular point group: c1

    Geometry (in Angstrom), charge = -1, multiplicity = 1:

       Center              X                  Y                   Z               Mass
    ------------   -----------------  -----------------  -----------------  -----------------
      Gh(O)           0.000000000000     0.000000000000     0.000000000000    15.994914619570
      Gh(H)           0.558780000000     0.541683000000    -0.558780000000     1.007825032230
      Gh(H)           0.278323000000    -0.906600000000    -0.278323000000     1.007825032230
         CL           3.070352000000     0.000000000000     0.000000000000    34.968852682000

  Charge       = -1
  Multiplicity = 1
  Basis Set: AUG-CC-PVTZ
    Blend: AUG-CC-PVTZ
  Basis Set: (AUG-CC-PVTZ AUX)
    Blend: AUG-CC-PVTZ-JKFIT

    Orbital Energies [Eh]
    ---------------------

    Doubly Occupied:

       1A   -104.506184     2A    -10.229793     3A     -7.695840
       4A     -7.695838     5A     -7.695816     6A     -0.733502
       7A     -0.150337     8A     -0.150327     9A     -0.150326

  @DF-RHF Final Energy:  -459.57349794662065

   => Energetics <=

    Nuclear Repulsion Energy =              0.0000000000000000
    One-Electron Energy =                -641.1310710971988556
    Two-Electron Energy =                 181.5575731505781789
    Total Energy =                       -459.5734979466207051
 Dipole X            :       -104.4381781           98.6361146           -5.8020635
 Dipole Y            :         -0.0000018            0.0000000           -0.0000018
 Dipole Z            :          0.0001795            0.0000000            0.0001795
 Magnitude           :                                                    5.8020635

    SAPT Results
  --------------------------------------------------------------------------------------------------------
    Electrostatics                -17.54912340 [mEh]     -11.01224119 [kcal/mol]     -46.07521713 [kJ/mol]
      Elst10,r                    -16.98533834 [mEh]     -10.65846072 [kcal/mol]     -44.59499966 [kJ/mol]
      Elst12,r                     -0.56378506 [mEh]      -0.35378047 [kcal/mol]      -1.48021747 [kJ/mol]

    Exchange                       17.56125279 [mEh]      11.01985250 [kcal/mol]      46.10706286 [kJ/mol]
      Exch10                       15.38962780 [mEh]       9.65713724 [kcal/mol]      40.40546223 [kJ/mol]
      Exch10(S^2)                  15.26044464 [mEh]       9.57607359 [kcal/mol]      40.06629188 [kJ/mol]
      Exch11(S^2)                   0.43850852 [mEh]       0.27516825 [kcal/mol]       1.15130395 [kJ/mol]
      Exch12(S^2)                   1.73311647 [mEh]       1.08754701 [kcal/mol]       4.55029668 [kJ/mol]

    Induction                      -5.11465645 [mEh]      -3.20949538 [kcal/mol]     -13.42852867 [kJ/mol]
      Ind20,r                     -13.20180646 [mEh]      -8.28425862 [kcal/mol]     -34.66133809 [kJ/mol]
      Ind22                        -2.15520723 [mEh]      -1.35241296 [kcal/mol]      -5.65849581 [kJ/mol]
      Exch-Ind20,r                  9.64898859 [mEh]       6.05483175 [kcal/mol]      25.33341605 [kJ/mol]
      Exch-Ind22                    1.57520640 [mEh]       0.98845694 [kcal/mol]       4.13570383 [kJ/mol]
      delta HF,r (2)               -0.98183774 [mEh]      -0.61611249 [kcal/mol]      -2.57781464 [kJ/mol]

    Dispersion                     -5.71760825 [mEh]      -3.58785334 [kcal/mol]     -15.01157838 [kJ/mol]
      Disp20                       -6.64678385 [mEh]      -4.17091983 [kcal/mol]     -17.45112859 [kJ/mol]
      Disp21                        0.40544954 [mEh]       0.25442343 [kcal/mol]       1.06450761 [kJ/mol]
      Disp22 (SDQ)                 -0.07177311 [mEh]      -0.04503831 [kcal/mol]      -0.18844027 [kJ/mol]
      Disp22 (T)                   -1.02615629 [mEh]      -0.64392280 [kcal/mol]      -2.69417298 [kJ/mol]
      Est. Disp22 (T)              -1.20955970 [mEh]      -0.75901017 [kcal/mol]      -3.17569856 [kJ/mol]
      Exch-Disp20                   1.80505887 [mEh]       1.13269154 [kcal/mol]       4.73918142 [kJ/mol]

  Total HF                         -6.13036615 [mEh]      -3.84686284 [kcal/mol]     -16.09527412 [kJ/mol]
  Total SAPT0                     -10.97209113 [mEh]      -6.88509113 [kcal/mol]     -28.80722128 [kJ/mol]
  Total SAPT2                      -9.94425203 [mEh]      -6.24011236 [kcal/mol]     -26.10863010 [kJ/mol]
  Total SAPT2+                    -10.82013530 [mEh]      -6.78973741 [kcal/mol]     -28.40826132 [kJ/mol]

  Special recipe for scaled SAPT0 (see Manual):
    Electrostatics sSAPT0         -16.98533834 [mEh]     -10.65846072 [kcal/mol]     -44.59499966 [kJ/mol]
    Exchange sSAPT0                15.38962780 [mEh]       9.65713724 [kcal/mol]      40.40546223 [kJ/mol]
    Induction sSAPT0               -4.28753272 [mEh]      -2.69046740 [kcal/mol]     -11.25691561 [kJ/mol]
    Dispersion sSAPT0              -4.79549511 [mEh]      -3.00921862 [kcal/mol]     -12.59057069 [kJ/mol]
  Total sSAPT0                    -10.67873837 [mEh]      -6.70100950 [kcal/mol]     -28.03702373 [kJ/mol]
  --------------------------------------------------------------------------------------------------------

*** Psi4 exiting successfully. Buy a developer a beer!
