                               Psi4 1.9 release

  ==> Input File <==

--------------------------------------------------------------------------
MEMORY 60 GB

molecule dimer {
0 1
O      0.000000     0.000000     0.000000
H     -0.611102     0.413522     0.611102
H      0.416015     0.794175    -0.416015
--
-1 1
Cl     3.070352     0.000000     0.000000

units ang
no_reorient
no_com
symmetry c1
}

set {
basis        aug-cc-pVTZ
scf_type     df
}

energy("sapt2+")
--------------------------------------------------------------------------

  //              Dimer HF             //
    Molecular point group: c1
  Charge       = -1
  Multiplicity = 1
  Basis Set: AUG-CC-PVTZ
    Blend: AUG-CC-PVTZ
  Basis Set: (AUG-CC-PVTZ AUX)
    Blend: AUG-CC-PVTZ-JKFIT
  @DF-RHF Final Energy:  -535.62411851826050
    Total Energy =                       -535.6241185182605022
 Dipole X            :       -104.0579478           98.2674536           -5.7904942
 Dipole Y            :         -1.6130268            2.2822166            0.6691897
 Dipole Z            :         -0.2100029            0.3686610            0.1586581
 Magnitude           :                                                    5.8311929
  //            Monomer A HF           //
    Molecular point group: c1
  Multiplicity = 1
  Basis Set: AUG-CC-PVTZ
    Blend: AUG-CC-PVTZ
  Basis Set: (AUG-CC-PVTZ AUX)
    Blend: AUG-CC-PVTZ-JKFIT
  @DF-RHF Final Energy:   -76.05822705377885
    Total Energy =                        -76.0582270537788503
  //            Monomer B HF           //
    Molecular point group: c1

    Geometry (in Angstrom), charge = -1, multiplicity = 1:

       Center              X                  Y                   Z               Mass
    ------------   -----------------  -----------------  -----------------  -----------------
      Gh(O)           0.000000000000     0.000000000000     0.000000000000    15.994914619570
      Gh(H)          -0.611102000000     0.413522000000     0.611102000000     1.007825032230
      Gh(H)           0.416015000000     0.794175000000    -0.416015000000     1.007825032230
         CL           3.070352000000     0.000000000000     0.000000000000    34.968852682000

  Charge       = -1
  Multiplicity = 1
  Basis Set: AUG-CC-PVTZ
    Blend: AUG-CC-PVTZ
  Basis Set: (AUG-CC-PVTZ AUX)
    Blend: AUG-CC-PVTZ-JKFIT

    Orbital Energies [Eh]
    ---------------------

    Doubly Occupied:

       1A   -104.506138     2A    -10.229783     3A     -7.695826
       4A     -7.695824     5A     -7.695805     6A     -0.733504
       7A     -0.150338     8A     -0.150328     9A     -0.150327

  @DF-RHF Final Energy:  -459.57349470845168

   => Energetics <=

    Nuclear Repulsion Energy =              0.0000000000000000
    One-Electron Energy =                -641.1312390689089398
    Two-Electron Energy =                 181.5577443604572636
    Total Energy =                       -459.5734947084516762
 Dipole X            :       -104.4380443           98.6361146           -5.8019297
 Dipole Y            :         -0.0001301            0.0000000           -0.0001301
 Dipole Z            :          0.0000511            0.0000000            0.0000511
 Magnitude           :                                                    5.8019297

    SAPT Results
  --------------------------------------------------------------------------------------------------------
    Electrostatics                 -1.60872849 [mEh]      -1.00949237 [kcal/mol]      -4.22371607 [kJ/mol]
      Elst10,r                     -0.06669344 [mEh]      -0.04185076 [kcal/mol]      -0.17510359 [kJ/mol]
      Elst12,r                     -1.54203505 [mEh]      -0.96764161 [kcal/mol]      -4.04861248 [kJ/mol]

    Exchange                       13.28605660 [mEh]       8.33712638 [kcal/mol]      34.88253679 [kJ/mol]
      Exch10                       11.74682975 [mEh]       7.37124696 [kcal/mol]      30.84129726 [kJ/mol]
      Exch10(S^2)                  11.67068986 [mEh]       7.32346845 [kcal/mol]      30.64139201 [kJ/mol]
      Exch11(S^2)                   0.09627563 [mEh]       0.06041387 [kcal/mol]       0.25277162 [kJ/mol]
      Exch12(S^2)                   1.44295122 [mEh]       0.90546556 [kcal/mol]       3.78846790 [kJ/mol]

    Induction                      -4.55143497 [mEh]      -2.85606857 [kcal/mol]     -11.94979088 [kJ/mol]
      Ind20,r                     -10.68883301 [mEh]      -6.70734398 [kcal/mol]     -28.06352721 [kJ/mol]
      Ind22                        -1.58609482 [mEh]      -0.99528952 [kcal/mol]      -4.16429137 [kJ/mol]
      Exch-Ind20,r                  7.49084834 [mEh]       4.70057830 [kcal/mol]      19.66721962 [kJ/mol]
      Exch-Ind22                    1.11155219 [mEh]       0.69750953 [kcal/mol]       2.91837987 [kJ/mol]
      delta HF,r (2)               -0.87890768 [mEh]      -0.55152290 [kcal/mol]      -2.30757179 [kJ/mol]

    Dispersion                     -4.57774111 [mEh]      -2.87257591 [kcal/mol]     -12.01885762 [kJ/mol]
      Disp20                       -5.44431046 [mEh]      -3.41635639 [kcal/mol]     -14.29403513 [kJ/mol]
      Disp21                        0.42314029 [mEh]       0.26552454 [kcal/mol]       1.11095468 [kJ/mol]
      Disp22 (SDQ)                 -0.03379317 [mEh]      -0.02120554 [kcal/mol]      -0.08872397 [kJ/mol]
      Disp22 (T)                   -0.81296005 [mEh]      -0.51014014 [kcal/mol]      -2.13442633 [kJ/mol]
      Est. Disp22 (T)              -0.96825739 [mEh]      -0.60759069 [kcal/mol]      -2.54215943 [kJ/mol]
      Exch-Disp20                   1.44547962 [mEh]       0.90705216 [kcal/mol]       3.79510623 [kJ/mol]

  Total HF                          7.60324397 [mEh]       4.77110762 [kcal/mol]      19.96231429 [kJ/mol]
  Total SAPT0                       3.60441314 [mEh]       2.26180339 [kcal/mol]       9.46338539 [kJ/mol]
  Total SAPT2                       3.12706230 [mEh]       1.96226122 [kcal/mol]       8.21010094 [kJ/mol]
  Total SAPT2+                      2.54815202 [mEh]       1.59898954 [kcal/mol]       6.69017222 [kJ/mol]

  Special recipe for scaled SAPT0 (see Manual):
    Electrostatics sSAPT0          -0.06669344 [mEh]      -0.04185076 [kcal/mol]      -0.17510359 [kJ/mol]
    Exchange sSAPT0                11.74682975 [mEh]       7.37124696 [kcal/mol]      30.84129726 [kJ/mol]
    Induction sSAPT0               -3.92932229 [mEh]      -2.46568696 [kcal/mol]     -10.31643424 [kJ/mol]
    Dispersion sSAPT0              -3.97035482 [mEh]      -2.49143526 [kcal/mol]     -10.42416514 [kJ/mol]
  Total sSAPT0                      3.78045921 [mEh]       2.37227397 [kcal/mol]       9.92559429 [kJ/mol]
  --------------------------------------------------------------------------------------------------------

*** Psi4 exiting successfully. Buy a developer a beer!
