                               Psi4 1.9 release

  ==> Input File <==

--------------------------------------------------------------------------
MEMORY 60 GB

molecule dimer {
0 1
O      0.000000     0.000000     0.000000
H     -0.052322     0.955205     0.052322
H      0.694339    -0.112425    -0.694339
--
-1 1
Cl     3.070352     0.000000     0.000000

units ang
no_reorient
no_com
symmetry c1
}

set {
basis        aug-cc-pVTZ
scf_type     df
}

energy("sapt2+")
--------------------------------------------------------------------------

  //              Dimer HF             //
    Molecular point group: c1
  Charge       = -1
  Multiplicity = 1
  Basis Set: AUG-CC-PVTZ
    Blend: AUG-CC-PVTZ
  Basis Set: (AUG-CC-PVTZ AUX)
    Blend: AUG-CC-PVTZ-JKFIT
  @DF-RHF Final Energy:  -535.63700447889789
    Total Energy =                       -535.6370044788978930
 Dipole X            :       -104.9530744           99.8493509           -5.1037235
 Dipole Y            :         -1.0983806            1.5926234            0.4942427
 Dipole Z            :          0.9068871           -1.2132363           -0.3063492
 Magnitude           :                                                    5.1367420
  //            Monomer A HF           //
    Molecular point group: c1
  Multiplicity = 1
  Basis Set: AUG-CC-PVTZ
    Blend: AUG-CC-PVTZ
  Basis Set: (AUG-CC-PVTZ AUX)
    Blend: AUG-CC-PVTZ-JKFIT
  @DF-RHF Final Energy:   -76.05823365954289
    Total Energy =                        -76.0582336595428785
  //            Monomer B HF           //
    Molecular point group: c1

    Geometry (in Angstrom), charge = -1, multiplicity = 1:

       Center              X                  Y                   Z               Mass
    ------------   -----------------  -----------------  -----------------  -----------------
      Gh(O)           0.000000000000     0.000000000000     0.000000000000    15.994914619570
      Gh(H)          -0.052322000000     0.955205000000     0.052322000000     1.007825032230
      Gh(H)           0.694339000000    -0.112425000000    -0.694339000000     1.007825032230
         CL           3.070352000000     0.000000000000     0.000000000000    34.968852682000

  Charge       = -1
  Multiplicity = 1
  Basis Set: AUG-CC-PVTZ
    Blend: AUG-CC-PVTZ
  Basis Set: (AUG-CC-PVTZ AUX)
    Blend: AUG-CC-PVTZ-JKFIT

    Orbital Energies [Eh]
    ---------------------

    Doubly Occupied:

       1A   -104.506179     2A    -10.229790     3A     -7.695839
       4A     -7.695838     5A     -7.695814     6A     -0.733502
       7A     -0.150337     8A     -0.150327     9A     -0.150326

  @DF-RHF Final Energy:  -459.57349839901121

   => Energetics <=

    Nuclear Repulsion Energy =              0.0000000000000000
    One-Electron Energy =                -641.1310915534185142
    Two-Electron Energy =                 181.5575931544072716
    Total Energy =                       -459.5734983990112141
 Dipole X            :       -104.4383305           98.6361146           -5.8022159
 Dipole Y            :         -0.0000310            0.0000000           -0.0000310
 Dipole Z            :          0.0002202            0.0000000            0.0002202
 Magnitude           :                                                    5.8022159

    SAPT Results
  --------------------------------------------------------------------------------------------------------
    Electrostatics                -16.73498111 [mEh]     -10.50135919 [kcal/mol]     -43.93768686 [kJ/mol]
      Elst10,r                    -16.00022221 [mEh]     -10.04029102 [kcal/mol]     -42.00857761 [kJ/mol]
      Elst12,r                     -0.73475891 [mEh]      -0.46106817 [kcal/mol]      -1.92910924 [kJ/mol]

    Exchange                       18.57532266 [mEh]      11.65619095 [kcal/mol]      48.76950293 [kJ/mol]
      Exch10                       16.42255253 [mEh]      10.30530730 [kcal/mol]      43.11740573 [kJ/mol]
      Exch10(S^2)                  16.26533377 [mEh]      10.20665104 [kcal/mol]      42.70462794 [kJ/mol]
      Exch11(S^2)                   0.45137505 [mEh]       0.28324212 [kcal/mol]       1.18508504 [kJ/mol]
      Exch12(S^2)                   1.70139508 [mEh]       1.06764153 [kcal/mol]       4.46701216 [kJ/mol]

    Induction                      -6.32616673 [mEh]      -3.96972956 [kcal/mol]     -16.60934847 [kJ/mol]
      Ind20,r                     -13.83949358 [mEh]      -8.68441333 [kcal/mol]     -36.33558538 [kJ/mol]
      Ind22                        -2.08973598 [mEh]      -1.31132912 [kcal/mol]      -5.48660105 [kJ/mol]
      Exch-Ind20,r                  9.65787511 [mEh]       6.06040813 [kcal/mol]      25.35674762 [kJ/mol]
      Exch-Ind22                    1.45831991 [mEh]       0.91510956 [kcal/mol]       3.82881841 [kJ/mol]
      delta HF,r (2)               -1.51313221 [mEh]      -0.94950479 [kcal/mol]      -3.97272806 [kJ/mol]

    Dispersion                     -5.85401579 [mEh]      -3.67345037 [kcal/mol]     -15.36971633 [kJ/mol]
      Disp20                       -6.84363391 [mEh]      -4.29444511 [kcal/mol]     -17.96795835 [kJ/mol]
      Disp21                        0.42458540 [mEh]       0.26643136 [kcal/mol]       1.11474881 [kJ/mol]
      Disp22 (SDQ)                 -0.03693173 [mEh]      -0.02317501 [kcal/mol]      -0.09696425 [kJ/mol]
      Disp22 (T)                   -1.03799901 [mEh]      -0.65135421 [kcal/mol]      -2.72526601 [kJ/mol]
      Est. Disp22 (T)              -1.23043637 [mEh]      -0.77211048 [kcal/mol]      -3.23051025 [kJ/mol]
      Exch-Disp20                   1.83240083 [mEh]       1.14984888 [kcal/mol]       4.81096772 [kJ/mol]

  Total HF                         -5.27242034 [mEh]      -3.30849372 [kcal/mol]     -13.84273771 [kJ/mol]
  Total SAPT0                     -10.28365342 [mEh]      -6.45308995 [kcal/mol]     -26.99972834 [kJ/mol]
  Total SAPT2                      -9.49705826 [mEh]      -5.95949403 [kcal/mol]     -24.93452303 [kJ/mol]
  Total SAPT2+                    -10.33984097 [mEh]      -6.48834817 [kcal/mol]     -27.14724872 [kJ/mol]

  Special recipe for scaled SAPT0 (see Manual):
    Electrostatics sSAPT0         -16.00022221 [mEh]     -10.04029102 [kcal/mol]     -42.00857761 [kJ/mol]
    Exchange sSAPT0                16.42255253 [mEh]      10.30530730 [kcal/mol]      43.11740573 [kJ/mol]
    Induction sSAPT0               -5.41197939 [mEh]      -3.39606834 [kcal/mol]     -14.20914993 [kJ/mol]
    Dispersion sSAPT0              -4.95758253 [mEh]      -3.11093000 [kcal/mol]     -13.01613113 [kJ/mol]
  Total sSAPT0                     -9.94723159 [mEh]      -6.24198206 [kcal/mol]     -26.11645293 [kJ/mol]
  --------------------------------------------------------------------------------------------------------

*** Psi4 exiting successfully. Buy a developer a beer!
