                               Psi4 1.9 release

  ==> Input File <==

--------------------------------------------------------------------------
MEMORY 60 GB

molecule dimer {
0 1
O      0.000000     0.000000     0.000000
H     -0.514599     0.623110     0.514599
H      0.547184     0.614842    -0.547184
--
-1 1
Cl     3.070352     0.000000     0.000000

units ang
no_reorient
no_com
symmetry c1
}

set {
basis        aug-cc-pVTZ
scf_type     df
}

energy("sapt2+")
--------------------------------------------------------------------------

  //              Dimer HF             //
    Molecular point group: c1
  Charge       = -1
  Multiplicity = 1
  Basis Set: AUG-CC-PVTZ
    Blend: AUG-CC-PVTZ
  Basis Set: (AUG-CC-PVTZ AUX)
    Blend: AUG-CC-PVTZ-JKFIT
  @DF-RHF Final Energy:  -535.62823609890279
    Total Energy =                       -535.6282360989027893
 Dipole X            :       -104.2911320           98.6976913           -5.5934407
 Dipole Y            :         -1.6493087            2.3393902            0.6900815
 Dipole Z            :          0.0982793           -0.0615767            0.0367026
 Magnitude           :                                                    5.6359682
  //            Monomer A HF           //
    Molecular point group: c1
  Multiplicity = 1
  Basis Set: AUG-CC-PVTZ
    Blend: AUG-CC-PVTZ
  Basis Set: (AUG-CC-PVTZ AUX)
    Blend: AUG-CC-PVTZ-JKFIT
  @DF-RHF Final Energy:   -76.05822908137503
    Total Energy =                        -76.0582290813750319
  //            Monomer B HF           //
    Molecular point group: c1

    Geometry (in Angstrom), charge = -1, multiplicity = 1:

       Center              X                  Y                   Z               Mass
    ------------   -----------------  -----------------  -----------------  -----------------
      Gh(O)           0.000000000000     0.000000000000     0.000000000000    15.994914619570
      Gh(H)          -0.514599000000     0.623110000000     0.514599000000     1.007825032230
      Gh(H)           0.547184000000     0.614842000000    -0.547184000000     1.007825032230
         CL           3.070352000000     0.000000000000     0.000000000000    34.968852682000

  Charge       = -1
  Multiplicity = 1
  Basis Set: AUG-CC-PVTZ
    Blend: AUG-CC-PVTZ
  Basis Set: (AUG-CC-PVTZ AUX)
    Blend: AUG-CC-PVTZ-JKFIT

    Orbital Energies [Eh]
    ---------------------

    Doubly Occupied:

       1A   -104.506152     2A    -10.229785     3A     -7.695830
       4A     -7.695829     5A     -7.695809     6A     -0.733504
       7A     -0.150338     8A     -0.150328     9A     -0.150327

  @DF-RHF Final Energy:  -459.57349566255044

   => Energetics <=

    Nuclear Repulsion Energy =              0.0000000000000000
    One-Electron Energy =                -641.1311852408601908
    Two-Electron Energy =                 181.5576895783097768
    Total Energy =                       -459.5734956625503855
 Dipole X            :       -104.4381052           98.6361146           -5.8019906
 Dipole Y            :         -0.0001826            0.0000000           -0.0001826
 Dipole Z            :          0.0000910            0.0000000            0.0000910
 Magnitude           :                                                    5.8019906

    SAPT Results
  --------------------------------------------------------------------------------------------------------
    Electrostatics                 -6.33212115 [mEh]      -3.97346601 [kcal/mol]     -16.62498180 [kJ/mol]
      Elst10,r                     -5.01799543 [mEh]      -3.14883967 [kcal/mol]     -13.17474517 [kJ/mol]
      Elst12,r                     -1.31412573 [mEh]      -0.82462634 [kcal/mol]      -3.45023662 [kJ/mol]

    Exchange                       14.80282324 [mEh]       9.28891182 [kcal/mol]      38.86480706 [kJ/mol]
      Exch10                       13.12251722 [mEh]       8.23450387 [kcal/mol]      34.45316421 [kJ/mol]
      Exch10(S^2)                  13.02576559 [mEh]       8.17379131 [kcal/mol]      34.19914285 [kJ/mol]
      Exch11(S^2)                   0.19018602 [mEh]       0.11934353 [kcal/mol]       0.49933334 [kJ/mol]
      Exch12(S^2)                   1.49012000 [mEh]       0.93506442 [kcal/mol]       3.91230952 [kJ/mol]

    Induction                      -5.13242962 [mEh]      -3.22064821 [kcal/mol]     -13.47519210 [kJ/mol]
      Ind20,r                     -11.62554015 [mEh]      -7.29513658 [kcal/mol]     -30.52285146 [kJ/mol]
      Ind22                        -1.70189917 [mEh]      -1.06795785 [kcal/mol]      -4.46833566 [kJ/mol]
      Exch-Ind20,r                  8.09700806 [mEh]       5.08094927 [kcal/mol]      21.25869173 [kJ/mol]
      Exch-Ind22                    1.18534633 [mEh]       0.74381605 [kcal/mol]       3.11212635 [kJ/mol]
      delta HF,r (2)               -1.08734468 [mEh]      -0.68231909 [kcal/mol]      -2.85482305 [kJ/mol]

    Dispersion                     -4.94859711 [mEh]      -3.10529157 [kcal/mol]     -12.99253991 [kJ/mol]
      Disp20                       -5.85529931 [mEh]      -3.67425579 [kcal/mol]     -15.37308622 [kJ/mol]
      Disp21                        0.42089504 [mEh]       0.26411562 [kcal/mol]       1.10505977 [kJ/mol]
      Disp22 (SDQ)                 -0.02383438 [mEh]      -0.01495630 [kcal/mol]      -0.06257717 [kJ/mol]
      Disp22 (T)                   -0.87753453 [mEh]      -0.55066123 [kcal/mol]      -2.30396660 [kJ/mol]
      Est. Disp22 (T)              -1.04268400 [mEh]      -0.65429409 [kcal/mol]      -2.73756646 [kJ/mol]
      Exch-Disp20                   1.55232555 [mEh]       0.97409899 [kcal/mol]       4.07563016 [kJ/mol]

  Total HF                          3.48864502 [mEh]       2.18915780 [kcal/mol]       9.15943625 [kJ/mol]
  Total SAPT0                      -0.81432874 [mEh]      -0.51099900 [kcal/mol]      -2.13801981 [kJ/mol]
  Total SAPT2                      -0.96470129 [mEh]      -0.60535920 [kcal/mol]      -2.53282289 [kJ/mol]
  Total SAPT2+                     -1.61032463 [mEh]      -1.01049396 [kcal/mol]      -4.22790674 [kJ/mol]

  Special recipe for scaled SAPT0 (see Manual):
    Electrostatics sSAPT0          -5.01799543 [mEh]      -3.14883967 [kcal/mol]     -13.17474517 [kJ/mol]
    Exchange sSAPT0                13.12251722 [mEh]       8.23450387 [kcal/mol]      34.45316421 [kJ/mol]
    Induction sSAPT0               -4.43410658 [mEh]      -2.78244389 [kcal/mol]     -11.64174523 [kJ/mol]
    Dispersion sSAPT0              -4.26812552 [mEh]      -2.67828920 [kcal/mol]     -11.20596200 [kJ/mol]
  Total sSAPT0                     -0.59771031 [mEh]      -0.37506888 [kcal/mol]      -1.56928819 [kJ/mol]
  --------------------------------------------------------------------------------------------------------

*** Psi4 exiting successfully. Buy a developer a beer!
