                               Psi4 1.9 release

  ==> Input File <==

--------------------------------------------------------------------------
MEMORY 60 GB

molecule dimer {
0 1
O      0.000000     0.000000     0.000000
H      0.440605     0.727754    -0.440605
H      0.434759    -0.773835    -0.434759
--
-1 1
Cl     3.070352     0.000000     0.000000

units ang
no_reorient
no_com
symmetry c1
}

set {
basis        aug-cc-pVTZ
scf_type     df
}

energy("sapt2+")
--------------------------------------------------------------------------

  //              Dimer HF             //
    Molecular point group: c1
  Charge       = -1
  Multiplicity = 1
  Basis Set: AUG-CC-PVTZ
    Blend: AUG-CC-PVTZ
  Basis Set: (AUG-CC-PVTZ AUX)
    Blend: AUG-CC-PVTZ-JKFIT
  @DF-RHF Final Energy:  -535.63796929343823
    Total Energy =                       -535.6379692934382319
 Dipole X            :       -105.2750953          100.2903128           -4.9847824
 Dipole Y            :          0.0638894           -0.0870805           -0.0231911
 Dipole Z            :          1.1937779           -1.6541982           -0.4604204
 Magnitude           :                                                    5.0060544
  //            Monomer A HF           //
    Molecular point group: c1
  Multiplicity = 1
  Basis Set: AUG-CC-PVTZ
    Blend: AUG-CC-PVTZ
  Basis Set: (AUG-CC-PVTZ AUX)
    Blend: AUG-CC-PVTZ-JKFIT
  @DF-RHF Final Energy:   -76.05822326853631
    Total Energy =                        -76.0582232685363095
  //            Monomer B HF           //
    Molecular point group: c1

    Geometry (in Angstrom), charge = -1, multiplicity = 1:

       Center              X                  Y                   Z               Mass
    ------------   -----------------  -----------------  -----------------  -----------------
      Gh(O)           0.000000000000     0.000000000000     0.000000000000    15.994914619570
      Gh(H)           0.440605000000     0.727754000000    -0.440605000000     1.007825032230
      Gh(H)           0.434759000000    -0.773835000000    -0.434759000000     1.007825032230
         CL           3.070352000000     0.000000000000     0.000000000000    34.968852682000

  Charge       = -1
  Multiplicity = 1
  Basis Set: AUG-CC-PVTZ
    Blend: AUG-CC-PVTZ
  Basis Set: (AUG-CC-PVTZ AUX)
    Blend: AUG-CC-PVTZ-JKFIT

    Orbital Energies [Eh]
    ---------------------

    Doubly Occupied:

       1A   -104.506185     2A    -10.229794     3A     -7.695841
       4A     -7.695838     5A     -7.695817     6A     -0.733502
       7A     -0.150337     8A     -0.150327     9A     -0.150326

  @DF-RHF Final Energy:  -459.57349733038967

   => Energetics <=

    Nuclear Repulsion Energy =              0.0000000000000000
    One-Electron Energy =                -641.1310598549147244
    Two-Electron Energy =                 181.5575625245250535
    Total Energy =                       -459.5734973303896709
 Dipole X            :       -104.4380996           98.6361146           -5.8019850
 Dipole Y            :          0.0000046            0.0000000            0.0000046
 Dipole Z            :          0.0001697            0.0000000            0.0001697
 Magnitude           :                                                    5.8019850

    SAPT Results
  --------------------------------------------------------------------------------------------------------
    Electrostatics                -17.68375430 [mEh]     -11.09672336 [kcal/mol]     -46.42869053 [kJ/mol]
      Elst10,r                    -17.13991167 [mEh]     -10.75545695 [kcal/mol]     -45.00083190 [kJ/mol]
      Elst12,r                     -0.54384263 [mEh]      -0.34126640 [kcal/mol]      -1.42785863 [kJ/mol]

    Exchange                       17.41089523 [mEh]      10.92550170 [kcal/mol]      45.71229912 [kJ/mol]
      Exch10                       15.23197768 [mEh]       9.55821030 [kcal/mol]      39.99155188 [kJ/mol]
      Exch10(S^2)                  15.10691787 [mEh]       9.47973408 [kcal/mol]      39.66320739 [kJ/mol]
      Exch11(S^2)                   0.44710700 [mEh]       0.28056388 [kcal/mol]       1.17387927 [kJ/mol]
      Exch12(S^2)                   1.73181055 [mEh]       1.08672753 [kcal/mol]       4.54686797 [kJ/mol]

    Induction                      -4.91168187 [mEh]      -3.08212691 [kcal/mol]     -12.89561898 [kJ/mol]
      Ind20,r                     -13.08749295 [mEh]      -8.21252582 [kcal/mol]     -34.36120802 [kJ/mol]
      Ind22                        -2.16489396 [mEh]      -1.35849147 [kcal/mol]      -5.68392831 [kJ/mol]
      Exch-Ind20,r                  9.63608639 [mEh]       6.04673550 [kcal/mol]      25.29954133 [kJ/mol]
      Exch-Ind22                    1.59397260 [mEh]       1.00023291 [kcal/mol]       4.18497450 [kJ/mol]
      delta HF,r (2)               -0.88935395 [mEh]      -0.55807803 [kcal/mol]      -2.33499847 [kJ/mol]

    Dispersion                     -5.70965682 [mEh]      -3.58286375 [kcal/mol]     -14.99070192 [kJ/mol]
      Disp20                       -6.62983495 [mEh]      -4.16028424 [kcal/mol]     -17.40662927 [kJ/mol]
      Disp21                        0.40383967 [mEh]       0.25341322 [kcal/mol]       1.06028091 [kJ/mol]
      Disp22 (SDQ)                 -0.07662564 [mEh]      -0.04808331 [kcal/mol]      -0.20118059 [kJ/mol]
      Disp22 (T)                   -1.03133551 [mEh]      -0.64717280 [kcal/mol]      -2.70777101 [kJ/mol]
      Est. Disp22 (T)              -1.21132403 [mEh]      -0.76011731 [kcal/mol]      -3.18033081 [kJ/mol]
      Exch-Disp20                   1.80428813 [mEh]       1.13220790 [kcal/mol]       4.73715784 [kJ/mol]

  Total HF                         -6.24869451 [mEh]      -3.92111501 [kcal/mol]     -16.40594518 [kJ/mol]
  Total SAPT0                     -11.07424133 [mEh]      -6.94919135 [kcal/mol]     -29.07541661 [kJ/mol]
  Total SAPT2                     -10.01008777 [mEh]      -6.28142491 [kcal/mol]     -26.28148182 [kJ/mol]
  Total SAPT2+                    -10.89419777 [mEh]      -6.83621231 [kcal/mol]     -28.60271231 [kJ/mol]

  Special recipe for scaled SAPT0 (see Manual):
    Electrostatics sSAPT0         -17.13991167 [mEh]     -10.75545695 [kcal/mol]     -45.00083190 [kJ/mol]
    Exchange sSAPT0                15.23197768 [mEh]       9.55821030 [kcal/mol]      39.99155188 [kJ/mol]
    Induction sSAPT0               -4.09946230 [mEh]      -2.57245143 [kcal/mol]     -10.76313679 [kJ/mol]
    Dispersion sSAPT0              -4.78036546 [mEh]      -2.99972461 [kcal/mol]     -12.55084778 [kJ/mol]
  Total sSAPT0                    -10.78776176 [mEh]      -6.76942270 [kcal/mol]     -28.32326459 [kJ/mol]
  --------------------------------------------------------------------------------------------------------

*** Psi4 exiting successfully. Buy a developer a beer!
