                               Psi4 1.9 release

  ==> Input File <==

--------------------------------------------------------------------------
MEMORY 60 GB

molecule dimer {
0 1
O      0.000000     0.000000     0.000000
H     -0.227890     0.902511     0.227890
H      0.688397     0.147292    -0.688397
--
-1 1
Br     3.212066     0.000000     0.000000

units ang
no_reorient
no_com
symmetry c1
}

set {
basis        aug-cc-pVTZ
scf_type     df
}

energy("sapt2+")
--------------------------------------------------------------------------

  //              Dimer HF             //
    Molecular point group: c1
  Charge       = -1
  Multiplicity = 1
  Basis Set: AUG-CC-PVTZ
    Blend: AUG-CC-PVTZ
  Basis Set: (AUG-CC-PVTZ AUX)
    Blend: AUG-CC-PVTZ-JKFIT
  @DF-RHF Final Energy: -2648.59440054270226
    Total Energy =                      -2648.5944005427027150
 Dipole X            :       -218.8467255          213.3176084           -5.5291171
 Dipole Y            :         -1.3938696            1.9838402            0.5899706
 Dipole Z            :          0.6892361           -0.8702321           -0.1809960
 Magnitude           :                                                    5.5634487
  //            Monomer A HF           //
    Molecular point group: c1
  Multiplicity = 1
  Basis Set: AUG-CC-PVTZ
    Blend: AUG-CC-PVTZ
  Basis Set: (AUG-CC-PVTZ AUX)
    Blend: AUG-CC-PVTZ-JKFIT
  @DF-RHF Final Energy:   -76.05854935737943
    Total Energy =                        -76.0585493573794338
  //            Monomer B HF           //
    Molecular point group: c1

    Geometry (in Angstrom), charge = -1, multiplicity = 1:

       Center              X                  Y                   Z               Mass
    ------------   -----------------  -----------------  -----------------  -----------------
      Gh(O)           0.000000000000     0.000000000000     0.000000000000    15.994914619570
      Gh(H)          -0.227890000000     0.902511000000     0.227890000000     1.007825032230
      Gh(H)           0.688397000000     0.147292000000    -0.688397000000     1.007825032230
         BR           3.212066000000     0.000000000000     0.000000000000    78.918337600000

  Charge       = -1
  Multiplicity = 1
  Basis Set: AUG-CC-PVTZ
    Blend: AUG-CC-PVTZ
  Basis Set: (AUG-CC-PVTZ AUX)
    Blend: AUG-CC-PVTZ-JKFIT

    Orbital Energies [Eh]
    ---------------------

    Doubly Occupied:

       1A   -489.720615     2A    -64.860633     3A    -58.215114
       4A    -58.215113     5A    -58.215110     6A     -9.532908
       7A     -7.140256     8A     -7.140255     9A     -7.140241
      10A     -2.881926    11A     -2.881926    12A     -2.881923
      13A     -2.881921    14A     -2.881906    15A     -0.685998
      16A     -0.139337    17A     -0.139337    18A     -0.139337

  @DF-RHF Final Energy: -2572.53367791399933

   => Energetics <=

    Nuclear Repulsion Energy =              0.0000000000000000
    One-Electron Energy =               -3593.6796443110529253
    Two-Electron Energy =                1021.1459663970537122
    Total Energy =                      -2572.5336779139993268
 Dipole X            :       -218.5173837          212.4473763           -6.0700074
 Dipole Y            :         -0.0000172            0.0000000           -0.0000172
 Dipole Z            :         -0.0000861            0.0000000           -0.0000861
 Magnitude           :                                                    6.0700074

    SAPT Results
  --------------------------------------------------------------------------------------------------------
    Electrostatics                -13.73629005 [mEh]      -8.61965214 [kcal/mol]     -36.06462457 [kJ/mol]
      Elst10,r                    -12.97561859 [mEh]      -8.14232359 [kcal/mol]     -34.06748190 [kJ/mol]
      Elst12,r                     -0.76067147 [mEh]      -0.47732855 [kcal/mol]      -1.99714266 [kJ/mol]

    Exchange                       17.71787252 [mEh]      11.11813286 [kcal/mol]      46.51826789 [kJ/mol]
      Exch10                       15.85991924 [mEh]       9.95224958 [kcal/mol]      41.64021223 [kJ/mol]
      Exch10(S^2)                  15.70489577 [mEh]       9.85497088 [kcal/mol]      41.23319817 [kJ/mol]
      Exch11(S^2)                   0.42929696 [mEh]       0.26938791 [kcal/mol]       1.12711902 [kJ/mol]
      Exch12(S^2)                   1.42865631 [mEh]       0.89649537 [kcal/mol]       3.75093664 [kJ/mol]

    Induction                      -5.57886474 [mEh]      -3.50079047 [kcal/mol]     -14.64730735 [kJ/mol]
      Ind20,r                     -14.38928064 [mEh]      -9.02940992 [kcal/mol]     -37.77905111 [kJ/mol]
      Ind22                        -2.11609783 [mEh]      -1.32787143 [kcal/mol]      -5.55581408 [kJ/mol]
      Exch-Ind20,r                 10.84453536 [mEh]       6.80504868 [kcal/mol]      28.47232368 [kJ/mol]
      Exch-Ind22                    1.59480507 [mEh]       1.00075529 [kcal/mol]       4.18716014 [kJ/mol]
      delta HF,r (2)               -1.51282671 [mEh]      -0.94931309 [kcal/mol]      -3.97192597 [kJ/mol]

    Dispersion                     -5.71747941 [mEh]      -3.58777250 [kcal/mol]     -15.01124013 [kJ/mol]
      Disp20                       -6.79821482 [mEh]      -4.26594421 [kcal/mol]     -17.84871056 [kJ/mol]
      Disp21                        0.47400613 [mEh]       0.29744333 [kcal/mol]       1.24450291 [kJ/mol]
      Disp22 (SDQ)                 -0.02398190 [mEh]      -0.01504887 [kcal/mol]      -0.06296447 [kJ/mol]
      Disp22 (T)                   -1.01934592 [mEh]      -0.63964922 [kcal/mol]      -2.67629234 [kJ/mol]
      Est. Disp22 (T)              -1.18531803 [mEh]      -0.74379829 [kcal/mol]      -3.11205205 [kJ/mol]
      Exch-Disp20                   1.81602922 [mEh]       1.13957554 [kcal/mol]       4.76798405 [kJ/mol]

  Total HF                         -2.17327132 [mEh]      -1.36374834 [kcal/mol]      -5.70592307 [kJ/mol]
  Total SAPT0                      -7.15545693 [mEh]      -4.49011701 [kcal/mol]     -18.78664959 [kJ/mol]
  Total SAPT2                      -6.57946788 [mEh]      -4.12867843 [kcal/mol]     -17.27439054 [kJ/mol]
  Total SAPT2+                     -7.31476168 [mEh]      -4.59008225 [kcal/mol]     -19.20490415 [kJ/mol]

  Special recipe for scaled SAPT0 (see Manual):
    Electrostatics sSAPT0         -12.97561859 [mEh]      -8.14232359 [kcal/mol]     -34.06748190 [kJ/mol]
    Exchange sSAPT0                15.85991924 [mEh]       9.95224958 [kcal/mol]      41.64021223 [kJ/mol]
    Induction sSAPT0               -4.73325142 [mEh]      -2.97016011 [kcal/mol]     -12.42714990 [kJ/mol]
    Dispersion sSAPT0              -4.92787479 [mEh]      -3.09228812 [kcal/mol]     -12.93813348 [kJ/mol]
  Total sSAPT0                     -6.77682556 [mEh]      -4.25252224 [kcal/mol]     -17.79255305 [kJ/mol]
  --------------------------------------------------------------------------------------------------------

*** Psi4 exiting successfully. Buy a developer a beer!
