                               Psi4 1.9 release

  ==> Input File <==

--------------------------------------------------------------------------
MEMORY 60 GB

molecule dimer {
0 1
O      0.000000     0.000000     0.000000
H      0.557444     0.544891    -0.557444
H      0.278772    -0.902246    -0.278772
--
-1 1
Br     3.212066     0.000000     0.000000

units ang
no_reorient
no_com
symmetry c1
}

set {
basis        aug-cc-pVTZ
scf_type     df
}

energy("sapt2+")
--------------------------------------------------------------------------

  //              Dimer HF             //
    Molecular point group: c1
  Charge       = -1
  Multiplicity = 1
  Basis Set: AUG-CC-PVTZ
    Blend: AUG-CC-PVTZ
  Basis Set: (AUG-CC-PVTZ AUX)
    Blend: AUG-CC-PVTZ-JKFIT
  @DF-RHF Final Energy: -2648.59719837452849
    Total Energy =                      -2648.5971983745280340
 Dipole X            :       -219.3201345          214.0275955           -5.2925390
 Dipole Y            :          0.4661632           -0.6753031           -0.2091399
 Dipole Z            :          1.1640012           -1.5802192           -0.4162180
 Magnitude           :                                                    5.3129979
  //            Monomer A HF           //
    Molecular point group: c1
  Multiplicity = 1
  Basis Set: AUG-CC-PVTZ
    Blend: AUG-CC-PVTZ
  Basis Set: (AUG-CC-PVTZ AUX)
    Blend: AUG-CC-PVTZ-JKFIT
  @DF-RHF Final Energy:   -76.05854153015315
    Total Energy =                        -76.0585415301531498
  //            Monomer B HF           //
    Molecular point group: c1

    Geometry (in Angstrom), charge = -1, multiplicity = 1:

       Center              X                  Y                   Z               Mass
    ------------   -----------------  -----------------  -----------------  -----------------
      Gh(O)           0.000000000000     0.000000000000     0.000000000000    15.994914619570
      Gh(H)           0.557444000000     0.544891000000    -0.557444000000     1.007825032230
      Gh(H)           0.278772000000    -0.902246000000    -0.278772000000     1.007825032230
         BR           3.212066000000     0.000000000000     0.000000000000    78.918337600000

  Charge       = -1
  Multiplicity = 1
  Basis Set: AUG-CC-PVTZ
    Blend: AUG-CC-PVTZ
  Basis Set: (AUG-CC-PVTZ AUX)
    Blend: AUG-CC-PVTZ-JKFIT

    Orbital Energies [Eh]
    ---------------------

    Doubly Occupied:

       1A   -489.720595     2A    -64.860619     3A    -58.215098
       4A    -58.215098     5A    -58.215095     6A     -9.532903
       7A     -7.140250     8A     -7.140249     9A     -7.140237
      10A     -2.881920    11A     -2.881920    12A     -2.881918
      13A     -2.881915    14A     -2.881901    15A     -0.685997
      16A     -0.139337    17A     -0.139336    18A     -0.139336

  @DF-RHF Final Energy: -2572.53367738909628

   => Energetics <=

    Nuclear Repulsion Energy =              0.0000000000000000
    One-Electron Energy =               -3593.6799062578443227
    Two-Electron Energy =                1021.1462288687479258
    Total Energy =                      -2572.5336773890962832
 Dipole X            :       -218.5173325          212.4473763           -6.0699562
 Dipole Y            :          0.0000531            0.0000000            0.0000531
 Dipole Z            :          0.0000180            0.0000000            0.0000180
 Magnitude           :                                                    6.0699562

    SAPT Results
  --------------------------------------------------------------------------------------------------------
    Electrostatics                -16.94359229 [mEh]     -10.63226468 [kcal/mol]     -44.48539543 [kJ/mol]
      Elst10,r                    -16.47575144 [mEh]     -10.33869012 [kcal/mol]     -43.25707946 [kJ/mol]
      Elst12,r                     -0.46784085 [mEh]      -0.29357456 [kcal/mol]      -1.22831597 [kJ/mol]

    Exchange                       17.46316497 [mEh]      10.95830146 [kcal/mol]      45.84953330 [kJ/mol]
      Exch10                       15.47153527 [mEh]       9.70853495 [kcal/mol]      40.62051024 [kJ/mol]
      Exch10(S^2)                  15.33220545 [mEh]       9.62110417 [kcal/mol]      40.25469985 [kJ/mol]
      Exch11(S^2)                   0.48542476 [mEh]       0.30460864 [kcal/mol]       1.27448254 [kJ/mol]
      Exch12(S^2)                   1.50620494 [mEh]       0.94515787 [kcal/mol]       3.95454052 [kJ/mol]

    Induction                      -4.46903103 [mEh]      -2.80435931 [kcal/mol]     -11.73343934 [kJ/mol]
      Ind20,r                     -14.28225193 [mEh]      -8.96224840 [kcal/mol]     -37.49804729 [kJ/mol]
      Ind22                        -2.35620636 [mEh]      -1.47854181 [kcal/mol]      -6.18621893 [kJ/mol]
      Exch-Ind20,r                 11.28910973 [mEh]       7.08402331 [kcal/mol]      29.63955352 [kJ/mol]
      Exch-Ind22                    1.86241443 [mEh]       1.16868270 [kcal/mol]       4.88976841 [kJ/mol]
      delta HF,r (2)               -0.98209690 [mEh]      -0.61627511 [kcal/mol]      -2.57849505 [kJ/mol]

    Dispersion                     -5.79095890 [mEh]      -3.63388157 [kcal/mol]     -15.20416051 [kJ/mol]
      Disp20                       -6.81893200 [mEh]      -4.27894443 [kcal/mol]     -17.90310350 [kJ/mol]
      Disp21                        0.45381119 [mEh]       0.28477082 [kcal/mol]       1.19148112 [kJ/mol]
      Disp22 (SDQ)                 -0.06779411 [mEh]      -0.04254145 [kcal/mol]      -0.17799341 [kJ/mol]
      Disp22 (T)                   -1.04115885 [mEh]      -0.65333704 [kcal/mol]      -2.73356219 [kJ/mol]
      Est. Disp22 (T)              -1.21550190 [mEh]      -0.76273895 [kcal/mol]      -3.19129979 [kJ/mol]
      Exch-Disp20                   1.85745791 [mEh]       1.16557244 [kcal/mol]       4.87675507 [kJ/mol]

  Total HF                         -4.97945528 [mEh]      -3.12465536 [kcal/mol]     -13.07355803 [kJ/mol]
  Total SAPT0                      -9.94092937 [mEh]      -6.23802736 [kcal/mol]     -26.09990646 [kJ/mol]
  Total SAPT2                      -8.91093244 [mEh]      -5.59169452 [kcal/mol]     -23.39564989 [kJ/mol]
  Total SAPT2+                     -9.74041725 [mEh]      -6.11220410 [kcal/mol]     -25.57346197 [kJ/mol]

  Special recipe for scaled SAPT0 (see Manual):
    Electrostatics sSAPT0         -16.47575144 [mEh]     -10.33869012 [kcal/mol]     -43.25707946 [kJ/mol]
    Exchange sSAPT0                15.47153527 [mEh]       9.70853495 [kcal/mol]      40.62051024 [kJ/mol]
    Induction sSAPT0               -3.66466802 [mEh]      -2.29961390 [kcal/mol]      -9.62158455 [kJ/mol]
    Dispersion sSAPT0              -4.91037416 [mEh]      -3.08130630 [kcal/mol]     -12.89218558 [kJ/mol]
  Total sSAPT0                     -9.57925835 [mEh]      -6.01107537 [kcal/mol]     -25.15033934 [kJ/mol]
  --------------------------------------------------------------------------------------------------------

*** Psi4 exiting successfully. Buy a developer a beer!
