                               Psi4 1.9 release

  ==> Input File <==

--------------------------------------------------------------------------
MEMORY 60 GB

molecule dimer {
0 1
O      0.000000     0.000000     0.000000
H      0.290113     0.866062    -0.290113
H      0.560416    -0.584246    -0.560416
--
-1 1
Br     3.212066     0.000000     0.000000

units ang
no_reorient
no_com
symmetry c1
}

set {
basis        aug-cc-pVTZ
scf_type     df
}

energy("sapt2+")
--------------------------------------------------------------------------

  //              Dimer HF             //
    Molecular point group: c1
  Charge       = -1
  Multiplicity = 1
  Basis Set: AUG-CC-PVTZ
    Blend: AUG-CC-PVTZ
  Basis Set: (AUG-CC-PVTZ AUX)
    Blend: AUG-CC-PVTZ-JKFIT
  @DF-RHF Final Energy: -2648.59733970904972
    Total Energy =                      -2648.5973397090501749
 Dipole X            :       -219.3350519          214.0546432           -5.2804087
 Dipole Y            :         -0.3596592            0.5325551            0.1728959
 Dipole Z            :          1.1835364           -1.6072669           -0.4237305
 Magnitude           :                                                    5.3002035
  //            Monomer A HF           //
    Molecular point group: c1
  Multiplicity = 1
  Basis Set: AUG-CC-PVTZ
    Blend: AUG-CC-PVTZ
  Basis Set: (AUG-CC-PVTZ AUX)
    Blend: AUG-CC-PVTZ-JKFIT
  @DF-RHF Final Energy:   -76.05854088283820
    Total Energy =                        -76.0585408828382015
  //            Monomer B HF           //
    Molecular point group: c1

    Geometry (in Angstrom), charge = -1, multiplicity = 1:

       Center              X                  Y                   Z               Mass
    ------------   -----------------  -----------------  -----------------  -----------------
      Gh(O)           0.000000000000     0.000000000000     0.000000000000    15.994914619570
      Gh(H)           0.290113000000     0.866062000000    -0.290113000000     1.007825032230
      Gh(H)           0.560416000000    -0.584246000000    -0.560416000000     1.007825032230
         BR           3.212066000000     0.000000000000     0.000000000000    78.918337600000

  Charge       = -1
  Multiplicity = 1
  Basis Set: AUG-CC-PVTZ
    Blend: AUG-CC-PVTZ
  Basis Set: (AUG-CC-PVTZ AUX)
    Blend: AUG-CC-PVTZ-JKFIT

    Orbital Energies [Eh]
    ---------------------

    Doubly Occupied:

       1A   -489.720593     2A    -64.860617     3A    -58.215097
       4A    -58.215096     5A    -58.215093     6A     -9.532903
       7A     -7.140249     8A     -7.140248     9A     -7.140236
      10A     -2.881920    11A     -2.881919    12A     -2.881918
      13A     -2.881915    14A     -2.881901    15A     -0.685997
      16A     -0.139337    17A     -0.139336    18A     -0.139336

  @DF-RHF Final Energy: -2572.53367733394862

   => Energetics <=

    Nuclear Repulsion Energy =              0.0000000000000000
    One-Electron Energy =               -3593.6799292765495011
    Two-Electron Energy =                1021.1462519426007702
    Total Energy =                      -2572.5336773339486172
 Dipole X            :       -218.5173295          212.4473763           -6.0699532
 Dipole Y            :         -0.0000513            0.0000000           -0.0000513
 Dipole Z            :          0.0000202            0.0000000            0.0000202
 Magnitude           :                                                    6.0699532

    SAPT Results
  --------------------------------------------------------------------------------------------------------
    Electrostatics                -17.16546691 [mEh]     -10.77149311 [kcal/mol]     -45.06792716 [kJ/mol]
      Elst10,r                    -16.69678499 [mEh]     -10.47739076 [kcal/mol]     -43.83740295 [kJ/mol]
      Elst12,r                     -0.46868192 [mEh]      -0.29410235 [kcal/mol]      -1.23052421 [kJ/mol]

    Exchange                       17.63228830 [mEh]      11.06442795 [kcal/mol]      46.29356655 [kJ/mol]
      Exch10                       15.62102823 [mEh]       9.80234321 [kcal/mol]      41.01300397 [kJ/mol]
      Exch10(S^2)                  15.47801281 [mEh]       9.71259967 [kcal/mol]      40.63751703 [kJ/mol]
      Exch11(S^2)                   0.50592347 [mEh]       0.31747177 [kcal/mol]       1.32830189 [kJ/mol]
      Exch12(S^2)                   1.50533660 [mEh]       0.94461298 [kcal/mol]       3.95226069 [kJ/mol]

    Induction                      -4.54640968 [mEh]      -2.85291514 [kcal/mol]     -11.93659696 [kJ/mol]
      Ind20,r                     -14.37828654 [mEh]      -9.02251102 [kcal/mol]     -37.75018612 [kJ/mol]
      Ind22                        -2.37082929 [mEh]      -1.48771784 [kcal/mol]      -6.22461144 [kJ/mol]
      Exch-Ind20,r                 11.34186518 [mEh]       7.11712785 [kcal/mol]      29.77806294 [kJ/mol]
      Exch-Ind22                    1.87015512 [mEh]       1.17354005 [kcal/mol]       4.91009159 [kJ/mol]
      delta HF,r (2)               -1.00931415 [mEh]      -0.63335419 [kcal/mol]      -2.64995393 [kJ/mol]

    Dispersion                     -5.83793970 [mEh]      -3.66336247 [kcal/mol]     -15.32750857 [kJ/mol]
      Disp20                       -6.87215874 [mEh]      -4.31234472 [kcal/mol]     -18.04285029 [kJ/mol]
      Disp21                        0.45658270 [mEh]       0.28650997 [kcal/mol]       1.19875770 [kJ/mol]
      Disp22 (SDQ)                 -0.06653971 [mEh]      -0.04175430 [kcal/mol]      -0.17469998 [kJ/mol]
      Disp22 (T)                   -1.05007957 [mEh]      -0.65893488 [kcal/mol]      -2.75698353 [kJ/mol]
      Est. Disp22 (T)              -1.22630577 [mEh]      -0.76951849 [kcal/mol]      -3.21966534 [kJ/mol]
      Exch-Disp20                   1.87048182 [mEh]       1.17374506 [kcal/mol]       4.91094933 [kJ/mol]

  Total HF                         -5.12149226 [mEh]      -3.21378491 [kcal/mol]     -13.44647608 [kJ/mol]
  Total SAPT0                     -10.12316919 [mEh]      -6.35238457 [kcal/mol]     -26.57837704 [kJ/mol]
  Total SAPT2                      -9.08126521 [mEh]      -5.69857995 [kcal/mol]     -23.84285853 [kJ/mol]
  Total SAPT2+                     -9.91752799 [mEh]      -6.22334277 [kcal/mol]     -26.03846615 [kJ/mol]

  Special recipe for scaled SAPT0 (see Manual):
    Electrostatics sSAPT0         -16.69678499 [mEh]     -10.47739076 [kcal/mol]     -43.83740295 [kJ/mol]
    Exchange sSAPT0                15.62102823 [mEh]       9.80234321 [kcal/mol]      41.01300397 [kJ/mol]
    Induction sSAPT0               -3.72842820 [mEh]      -2.33962402 [kcal/mol]      -9.78898689 [kJ/mol]
    Dispersion sSAPT0              -4.94934712 [mEh]      -3.10576221 [kcal/mol]     -12.99450908 [kJ/mol]
  Total sSAPT0                     -9.75353208 [mEh]      -6.12043378 [kcal/mol]     -25.60789496 [kJ/mol]
  --------------------------------------------------------------------------------------------------------

*** Psi4 exiting successfully. Buy a developer a beer!
