                               Psi4 1.9 release

  ==> Input File <==

--------------------------------------------------------------------------
MEMORY 60 GB

molecule dimer {
0 1
O      0.000000     0.000000     0.000000
H     -0.516445     0.620454     0.516444
H      0.544094     0.614329    -0.544094
--
-1 1
Br     3.212066     0.000000     0.000000

units ang
no_reorient
no_com
symmetry c1
}

set {
basis        aug-cc-pVTZ
scf_type     df
}

energy("sapt2+")
--------------------------------------------------------------------------

  //              Dimer HF             //
    Molecular point group: c1
  Charge       = -1
  Multiplicity = 1
  Basis Set: AUG-CC-PVTZ
    Blend: AUG-CC-PVTZ
  Basis Set: (AUG-CC-PVTZ AUX)
    Blend: AUG-CC-PVTZ-JKFIT
  @DF-RHF Final Energy: -2648.58835185179987
    Total Energy =                      -2648.5883518517998709
 Dipole X            :       -218.3987504          212.4996253           -5.8991250
 Dipole Y            :         -1.6637078            2.3334017            0.6696939
 Dipole Z            :          0.1028408           -0.0522509            0.0505899
 Magnitude           :                                                    5.9372321
  //            Monomer A HF           //
    Molecular point group: c1
  Multiplicity = 1
  Basis Set: AUG-CC-PVTZ
    Blend: AUG-CC-PVTZ
  Basis Set: (AUG-CC-PVTZ AUX)
    Blend: AUG-CC-PVTZ-JKFIT
  @DF-RHF Final Energy:   -76.05854311349347
    Total Energy =                        -76.0585431134934709
  //            Monomer B HF           //
    Molecular point group: c1

    Geometry (in Angstrom), charge = -1, multiplicity = 1:

       Center              X                  Y                   Z               Mass
    ------------   -----------------  -----------------  -----------------  -----------------
      Gh(O)           0.000000000000     0.000000000000     0.000000000000    15.994914619570
      Gh(H)          -0.516445000000     0.620454000000     0.516444000000     1.007825032230
      Gh(H)           0.544094000000     0.614329000000    -0.544094000000     1.007825032230
         BR           3.212066000000     0.000000000000     0.000000000000    78.918337600000

  Charge       = -1
  Multiplicity = 1
  Basis Set: AUG-CC-PVTZ
    Blend: AUG-CC-PVTZ
  Basis Set: (AUG-CC-PVTZ AUX)
    Blend: AUG-CC-PVTZ-JKFIT

    Orbital Energies [Eh]
    ---------------------

    Doubly Occupied:

       1A   -489.720559     2A    -64.860594     3A    -58.215072
       4A    -58.215071     5A    -58.215069     6A     -9.532896
       7A     -7.140242     8A     -7.140241     9A     -7.140230
      10A     -2.881911    11A     -2.881911    12A     -2.881910
      13A     -2.881908    14A     -2.881895    15A     -0.685998
      16A     -0.139337    17A     -0.139336    18A     -0.139336

  @DF-RHF Final Energy: -2572.53367615712477

   => Energetics <=

    Nuclear Repulsion Energy =              0.0000000000000000
    One-Electron Energy =               -3593.6803176015878307
    Two-Electron Energy =                1021.1466414444628299
    Total Energy =                      -2572.5336761571252282
 Dipole X            :       -218.5172678          212.4473763           -6.0698915
 Dipole Y            :          0.0000209            0.0000000            0.0000209
 Dipole Z            :         -0.0000534            0.0000000           -0.0000534
 Magnitude           :                                                    6.0698915

    SAPT Results
  --------------------------------------------------------------------------------------------------------
    Electrostatics                 -6.35796821 [mEh]      -3.98968529 [kcal/mol]     -16.69284324 [kJ/mol]
      Elst10,r                     -5.24001058 [mEh]      -3.28815628 [kcal/mol]     -13.75764587 [kJ/mol]
      Elst12,r                     -1.11795764 [mEh]      -0.70152901 [kcal/mol]      -2.93519737 [kJ/mol]

    Exchange                       14.72937878 [mEh]       9.24282473 [kcal/mol]      38.67197867 [kJ/mol]
      Exch10                       13.19111086 [mEh]       8.27754704 [kcal/mol]      34.63325680 [kJ/mol]
      Exch10(S^2)                  13.08767517 [mEh]       8.21264016 [kcal/mol]      34.36168642 [kJ/mol]
      Exch11(S^2)                   0.23000833 [mEh]       0.14433240 [kcal/mol]       0.60388678 [kJ/mol]
      Exch12(S^2)                   1.30825959 [mEh]       0.82094529 [kcal/mol]       3.43483509 [kJ/mol]

    Induction                      -4.50700578 [mEh]      -2.82818883 [kcal/mol]     -11.83314205 [kJ/mol]
      Ind20,r                     -12.31800308 [mEh]      -7.72966363 [kcal/mol]     -32.34091263 [kJ/mol]
      Ind22                        -1.75267445 [mEh]      -1.09981982 [kcal/mol]      -4.60164615 [kJ/mol]
      Exch-Ind20,r                  9.34282981 [mEh]       5.86271422 [kcal/mol]      24.52959628 [kJ/mol]
      Exch-Ind22                    1.32935014 [mEh]       0.83417981 [kcal/mol]       3.49020831 [kJ/mol]
      delta HF,r (2)               -1.10850820 [mEh]      -0.69559940 [kcal/mol]      -2.91038787 [kJ/mol]

    Dispersion                     -5.00456625 [mEh]      -3.14041273 [kcal/mol]     -13.13948688 [kJ/mol]
      Disp20                       -6.01404221 [mEh]      -3.77386846 [kcal/mol]     -15.78986565 [kJ/mol]
      Disp21                        0.47169938 [mEh]       0.29599583 [kcal/mol]       1.23844654 [kJ/mol]
      Disp22 (SDQ)                 -0.02365004 [mEh]      -0.01484063 [kcal/mol]      -0.06209318 [kJ/mol]
      Disp22 (T)                   -0.88433722 [mEh]      -0.55492998 [kcal/mol]      -2.32182704 [kJ/mol]
      Est. Disp22 (T)              -1.04377568 [mEh]      -0.65497913 [kcal/mol]      -2.74043267 [kJ/mol]
      Exch-Disp20                   1.60520231 [mEh]       1.00727966 [kcal/mol]       4.21445808 [kJ/mol]

  Total HF                          3.86741882 [mEh]       2.42684195 [kcal/mol]      10.15390671 [kJ/mol]
  Total SAPT0                      -0.54142108 [mEh]      -0.33974686 [kcal/mol]      -1.42150086 [kJ/mol]
  Total SAPT2                      -0.54443511 [mEh]      -0.34163819 [kcal/mol]      -1.42941419 [kJ/mol]
  Total SAPT2+                     -1.14016146 [mEh]      -0.71546212 [kcal/mol]      -2.99349350 [kJ/mol]

  Special recipe for scaled SAPT0 (see Manual):
    Electrostatics sSAPT0          -5.24001058 [mEh]      -3.28815628 [kcal/mol]     -13.75764587 [kJ/mol]
    Exchange sSAPT0                13.19111086 [mEh]       8.27754704 [kcal/mol]      34.63325680 [kJ/mol]
    Induction sSAPT0               -3.86040886 [mEh]      -2.42244313 [kcal/mol]     -10.13550205 [kJ/mol]
    Dispersion sSAPT0              -4.37047918 [mEh]      -2.74251709 [kcal/mol]     -11.47469150 [kJ/mol]
  Total sSAPT0                     -0.27978775 [mEh]      -0.17556946 [kcal/mol]      -0.73458262 [kJ/mol]
  --------------------------------------------------------------------------------------------------------

*** Psi4 exiting successfully. Buy a developer a beer!
