                               Psi4 1.9 release

  ==> Input File <==

--------------------------------------------------------------------------
MEMORY 60 GB

molecule dimer {
0 1
O      0.000000     0.000000     0.000000
H     -0.054954     0.955172     0.054954
H      0.691897    -0.109698    -0.691897
--
-1 1
Br     3.212066     0.000000     0.000000

units ang
no_reorient
no_com
symmetry c1
}

set {
basis        aug-cc-pVTZ
scf_type     df
}

energy("sapt2+")
--------------------------------------------------------------------------

  //              Dimer HF             //
    Molecular point group: c1
  Charge       = -1
  Multiplicity = 1
  Basis Set: AUG-CC-PVTZ
    Blend: AUG-CC-PVTZ
  Basis Set: (AUG-CC-PVTZ AUX)
    Blend: AUG-CC-PVTZ-JKFIT
  @DF-RHF Final Energy: -2648.59616753318869
    Total Energy =                      -2648.5961675331882361
 Dipole X            :       -219.0507878          213.6510241           -5.3997637
 Dipole Y            :         -1.1093508            1.5977143            0.4883635
 Dipole Z            :          0.9193634           -1.2036478           -0.2842844
 Magnitude           :                                                    5.4292508
  //            Monomer A HF           //
    Molecular point group: c1
  Multiplicity = 1
  Basis Set: AUG-CC-PVTZ
    Blend: AUG-CC-PVTZ
  Basis Set: (AUG-CC-PVTZ AUX)
    Blend: AUG-CC-PVTZ-JKFIT
  @DF-RHF Final Energy:   -76.05854883092719
    Total Energy =                        -76.0585488309271938
  //            Monomer B HF           //
    Molecular point group: c1

    Geometry (in Angstrom), charge = -1, multiplicity = 1:

       Center              X                  Y                   Z               Mass
    ------------   -----------------  -----------------  -----------------  -----------------
      Gh(O)           0.000000000000     0.000000000000     0.000000000000    15.994914619570
      Gh(H)          -0.054954000000     0.955172000000     0.054954000000     1.007825032230
      Gh(H)           0.691897000000    -0.109698000000    -0.691897000000     1.007825032230
         BR           3.212066000000     0.000000000000     0.000000000000    78.918337600000

  Charge       = -1
  Multiplicity = 1
  Basis Set: AUG-CC-PVTZ
    Blend: AUG-CC-PVTZ
  Basis Set: (AUG-CC-PVTZ AUX)
    Blend: AUG-CC-PVTZ-JKFIT

    Orbital Energies [Eh]
    ---------------------

    Doubly Occupied:

       1A   -489.720623     2A    -64.860639     3A    -58.215120
       4A    -58.215119     5A    -58.215116     6A     -9.532909
       7A     -7.140257     8A     -7.140256     9A     -7.140241
      10A     -2.881928    11A     -2.881927    12A     -2.881925
      13A     -2.881923    14A     -2.881907    15A     -0.685998
      16A     -0.139337    17A     -0.139337    18A     -0.139336

  @DF-RHF Final Energy: -2572.53367823935469

   => Energetics <=

    Nuclear Repulsion Energy =              0.0000000000000000
    One-Electron Energy =               -3593.6795609184946443
    Two-Electron Energy =                1021.1458826791399588
    Total Energy =                      -2572.5336782393546855
 Dipole X            :       -218.5174031          212.4473763           -6.0700268
 Dipole Y            :         -0.0000462            0.0000000           -0.0000462
 Dipole Z            :         -0.0000709            0.0000000           -0.0000709
 Magnitude           :                                                    6.0700268

    SAPT Results
  --------------------------------------------------------------------------------------------------------
    Electrostatics                -15.90036272 [mEh]      -9.97762824 [kcal/mol]     -41.74639657 [kJ/mol]
      Elst10,r                    -15.27222400 [mEh]      -9.58346525 [kcal/mol]     -40.09721859 [kJ/mol]
      Elst12,r                     -0.62813872 [mEh]      -0.39416300 [kcal/mol]      -1.64917798 [kJ/mol]

    Exchange                       18.32383351 [mEh]      11.49837913 [kcal/mol]      48.10921827 [kJ/mol]
      Exch10                       16.35336357 [mEh]      10.26189057 [kcal/mol]      42.93575015 [kJ/mol]
      Exch10(S^2)                  16.18889611 [mEh]      10.15868568 [kcal/mol]      42.50394088 [kJ/mol]
      Exch11(S^2)                   0.49081467 [mEh]       0.30799086 [kcal/mol]       1.28863375 [kJ/mol]
      Exch12(S^2)                   1.47965527 [mEh]       0.92849770 [kcal/mol]       3.88483437 [kJ/mol]

    Induction                      -5.56263071 [mEh]      -3.49060347 [kcal/mol]     -14.60468492 [kJ/mol]
      Ind20,r                     -14.82652081 [mEh]      -9.30378227 [kcal/mol]     -38.92702502 [kJ/mol]
      Ind22                        -2.26511611 [mEh]      -1.42138182 [kcal/mol]      -5.94706153 [kJ/mol]
      Exch-Ind20,r                 11.28517195 [mEh]       7.08155231 [kcal/mol]      29.62921488 [kJ/mol]
      Exch-Ind22                    1.72408788 [mEh]       1.08188148 [kcal/mol]       4.52659210 [kJ/mol]
      delta HF,r (2)               -1.48025362 [mEh]      -0.92887317 [kcal/mol]      -3.88640536 [kJ/mol]

    Dispersion                     -5.89108758 [mEh]      -3.69671327 [kcal/mol]     -15.46704832 [kJ/mol]
      Disp20                       -6.97427551 [mEh]      -4.37642395 [kcal/mol]     -18.31095782 [kJ/mol]
      Disp21                        0.47195532 [mEh]       0.29615644 [kcal/mol]       1.23911853 [kJ/mol]
      Disp22 (SDQ)                 -0.03658844 [mEh]      -0.02295959 [kcal/mol]      -0.09606293 [kJ/mol]
      Disp22 (T)                   -1.05315272 [mEh]      -0.66086331 [kcal/mol]      -2.76505209 [kJ/mol]
      Est. Disp22 (T)              -1.22456419 [mEh]      -0.76842563 [kcal/mol]      -3.21509285 [kJ/mol]
      Exch-Disp20                   1.87238523 [mEh]       1.17493947 [kcal/mol]       4.91594675 [kJ/mol]

  Total HF                         -3.94046291 [mEh]      -2.47267781 [kcal/mol]     -10.34568394 [kJ/mol]
  Total SAPT0                      -9.04235318 [mEh]      -5.67416229 [kcal/mol]     -23.74069501 [kJ/mol]
  Total SAPT2                      -8.24105019 [mEh]      -5.17133707 [kcal/mol]     -21.63687430 [kJ/mol]
  Total SAPT2+                     -9.03024750 [mEh]      -5.66656586 [kcal/mol]     -23.70891155 [kJ/mol]

  Special recipe for scaled SAPT0 (see Manual):
    Electrostatics sSAPT0         -15.27222400 [mEh]      -9.58346525 [kcal/mol]     -40.09721859 [kJ/mol]
    Exchange sSAPT0                16.35336357 [mEh]      10.26189057 [kcal/mol]      42.93575015 [kJ/mol]
    Induction sSAPT0               -4.67414886 [mEh]      -2.93307269 [kcal/mol]     -12.27197614 [kJ/mol]
    Dispersion sSAPT0              -5.04424232 [mEh]      -3.16530985 [kcal/mol]     -13.24365640 [kJ/mol]
  Total sSAPT0                     -8.63725161 [mEh]      -5.41995721 [kcal/mol]     -22.67710098 [kJ/mol]
  --------------------------------------------------------------------------------------------------------

*** Psi4 exiting successfully. Buy a developer a beer!
