                               Psi4 1.9 release

  ==> Input File <==

--------------------------------------------------------------------------
MEMORY 60 GB

molecule dimer {
0 1
O      0.000000     0.000000     0.000000
H     -0.612398     0.410281     0.612398
H      0.413124     0.792548    -0.413124
--
-1 1
Br     3.212066     0.000000     0.000000

units ang
no_reorient
no_com
symmetry c1
}

set {
basis        aug-cc-pVTZ
scf_type     df
}

energy("sapt2+")
--------------------------------------------------------------------------

  //              Dimer HF             //
    Molecular point group: c1
  Charge       = -1
  Multiplicity = 1
  Basis Set: AUG-CC-PVTZ
    Blend: AUG-CC-PVTZ
  Basis Set: (AUG-CC-PVTZ AUX)
    Blend: AUG-CC-PVTZ-JKFIT
  @DF-RHF Final Energy: -2648.58472016963788
    Total Energy =                      -2648.5847201696378761
 Dipole X            :       -218.1709401          212.0708030           -6.1001371
 Dipole Y            :         -1.6258397            2.2730174            0.6471777
 Dipole Z            :         -0.2089664            0.3765733            0.1676069
 Magnitude           :                                                    6.1366606
  //            Monomer A HF           //
    Molecular point group: c1
  Multiplicity = 1
  Basis Set: AUG-CC-PVTZ
    Blend: AUG-CC-PVTZ
  Basis Set: (AUG-CC-PVTZ AUX)
    Blend: AUG-CC-PVTZ-JKFIT
  @DF-RHF Final Energy:   -76.05854129988772
    Total Energy =                        -76.0585412998877075
  //            Monomer B HF           //
    Molecular point group: c1

    Geometry (in Angstrom), charge = -1, multiplicity = 1:

       Center              X                  Y                   Z               Mass
    ------------   -----------------  -----------------  -----------------  -----------------
      Gh(O)           0.000000000000     0.000000000000     0.000000000000    15.994914619570
      Gh(H)          -0.612398000000     0.410281000000     0.612398000000     1.007825032230
      Gh(H)           0.413124000000     0.792548000000    -0.413124000000     1.007825032230
         BR           3.212066000000     0.000000000000     0.000000000000    78.918337600000

  Charge       = -1
  Multiplicity = 1
  Basis Set: AUG-CC-PVTZ
    Blend: AUG-CC-PVTZ
  Basis Set: (AUG-CC-PVTZ AUX)
    Blend: AUG-CC-PVTZ-JKFIT

    Orbital Energies [Eh]
    ---------------------

    Doubly Occupied:

       1A   -489.720532     2A    -64.860574     3A    -58.215050
       4A    -58.215049     5A    -58.215048     6A     -9.532890
       7A     -7.140235     8A     -7.140234     9A     -7.140224
      10A     -2.881903    11A     -2.881903    12A     -2.881902
      13A     -2.881901    14A     -2.881890    15A     -0.685998
      16A     -0.139337    17A     -0.139336    18A     -0.139335

  @DF-RHF Final Energy: -2572.53367509446662

   => Energetics <=

    Nuclear Repulsion Energy =              0.0000000000000000
    One-Electron Energy =               -3593.6806658423470253
    Two-Electron Energy =                1021.1469907478805226
    Total Energy =                      -2572.5336750944666164
 Dipole X            :       -218.5172162          212.4473763           -6.0698399
 Dipole Y            :          0.0000246            0.0000000            0.0000246
 Dipole Z            :         -0.0000210            0.0000000           -0.0000210
 Magnitude           :                                                    6.0698399

    SAPT Results
  --------------------------------------------------------------------------------------------------------
    Electrostatics                 -2.08721190 [mEh]      -1.30974524 [kcal/mol]      -5.47997408 [kJ/mol]
      Elst10,r                     -0.77254208 [mEh]      -0.48477748 [kcal/mol]      -2.02830896 [kJ/mol]
      Elst12,r                     -1.31466981 [mEh]      -0.82496776 [kcal/mol]      -3.45166511 [kJ/mol]

    Exchange                       13.28163689 [mEh]       8.33435297 [kcal/mol]      34.87093285 [kJ/mol]
      Exch10                       11.86961666 [mEh]       7.44829690 [kcal/mol]      31.16367424 [kJ/mol]
      Exch10(S^2)                  11.78712343 [mEh]       7.39653162 [kcal/mol]      30.94708831 [kJ/mol]
      Exch11(S^2)                   0.13630174 [mEh]       0.08553063 [kcal/mol]       0.35786017 [kJ/mol]
      Exch12(S^2)                   1.27571849 [mEh]       0.80052544 [kcal/mol]       3.34939844 [kJ/mol]

    Induction                      -3.98389835 [mEh]      -2.49993396 [kcal/mol]     -10.45972369 [kJ/mol]
      Ind20,r                     -11.31731276 [mEh]      -7.10172097 [kcal/mol]     -29.71360056 [kJ/mol]
      Ind22                        -1.61378847 [mEh]      -1.01266755 [kcal/mol]      -4.23700104 [kJ/mol]
      Exch-Ind20,r                  8.63103773 [mEh]       5.41605794 [kcal/mol]      22.66078644 [kJ/mol]
      Exch-Ind22                    1.23073997 [mEh]       0.77230099 [kcal/mol]       3.23130735 [kJ/mol]
      delta HF,r (2)               -0.91457483 [mEh]      -0.57390437 [kcal/mol]      -2.40121587 [kJ/mol]

    Dispersion                     -4.64435662 [mEh]      -2.91437778 [kcal/mol]     -12.19375663 [kJ/mol]
      Disp20                       -5.61350920 [mEh]      -3.52253020 [kcal/mol]     -14.73826636 [kJ/mol]
      Disp21                        0.47453632 [mEh]       0.29777604 [kcal/mol]       1.24589494 [kJ/mol]
      Disp22 (SDQ)                 -0.03326614 [mEh]      -0.02087482 [kcal/mol]      -0.08734023 [kJ/mol]
      Disp22 (T)                   -0.83190238 [mEh]      -0.52202663 [kcal/mol]      -2.18415941 [kJ/mol]
      Est. Disp22 (T)              -0.97440186 [mEh]      -0.61144640 [kcal/mol]      -2.55829172 [kJ/mol]
      Exch-Disp20                   1.50228425 [mEh]       0.94269760 [kcal/mol]       3.94424676 [kJ/mol]

  Total HF                          7.49622472 [mEh]       4.70395203 [kcal/mol]      19.68133528 [kJ/mol]
  Total SAPT0                       3.38499977 [mEh]       2.12411942 [kcal/mol]       8.88731567 [kJ/mol]
  Total SAPT2                       3.09930169 [mEh]       1.94484117 [kcal/mol]       8.13721547 [kJ/mol]
  Total SAPT2+                      2.56617002 [mEh]       1.61029600 [kcal/mol]       6.73747845 [kJ/mol]

  Special recipe for scaled SAPT0 (see Manual):
    Electrostatics sSAPT0          -0.77254208 [mEh]      -0.48477748 [kcal/mol]      -2.02830896 [kJ/mol]
    Exchange sSAPT0                11.86961666 [mEh]       7.44829690 [kcal/mol]      31.16367424 [kJ/mol]
    Induction sSAPT0               -3.41836341 [mEh]      -2.14505542 [kcal/mol]      -8.97491189 [kJ/mol]
    Dispersion sSAPT0              -4.07946208 [mEh]      -2.55990110 [kcal/mol]     -10.71062621 [kJ/mol]
  Total sSAPT0                      3.59924908 [mEh]       2.25856290 [kcal/mol]       9.44982717 [kJ/mol]
  --------------------------------------------------------------------------------------------------------

*** Psi4 exiting successfully. Buy a developer a beer!
