                               Psi4 1.9 release

  ==> Input File <==

--------------------------------------------------------------------------
MEMORY 60 GB

molecule dimer {
0 1
O      0.000000     0.000000     0.000000
H      0.438728     0.730363    -0.438728
H      0.434396    -0.769465    -0.434396
--
-1 1
Br     3.212066     0.000000     0.000000

units ang
no_reorient
no_com
symmetry c1
}

set {
basis        aug-cc-pVTZ
scf_type     df
}

energy("sapt2+")
--------------------------------------------------------------------------

  //              Dimer HF             //
    Molecular point group: c1
  Charge       = -1
  Multiplicity = 1
  Basis Set: AUG-CC-PVTZ
    Blend: AUG-CC-PVTZ
  Basis Set: (AUG-CC-PVTZ AUX)
    Blend: AUG-CC-PVTZ-JKFIT
  @DF-RHF Final Energy: -2648.59734456944670
    Total Energy =                      -2648.5973445694467046
 Dipole X            :       -219.3705603          214.0973415           -5.2732188
 Dipole Y            :          0.0547448           -0.0738921           -0.0191472
 Dipole Z            :          1.2094001           -1.6499652           -0.4405652
 Magnitude           :                                                    5.2916255
  //            Monomer A HF           //
    Molecular point group: c1
  Multiplicity = 1
  Basis Set: AUG-CC-PVTZ
    Blend: AUG-CC-PVTZ
  Basis Set: (AUG-CC-PVTZ AUX)
    Blend: AUG-CC-PVTZ-JKFIT
  @DF-RHF Final Energy:   -76.05853910012021
    Total Energy =                        -76.0585391001202140
  //            Monomer B HF           //
    Molecular point group: c1

    Geometry (in Angstrom), charge = -1, multiplicity = 1:

       Center              X                  Y                   Z               Mass
    ------------   -----------------  -----------------  -----------------  -----------------
      Gh(O)           0.000000000000     0.000000000000     0.000000000000    15.994914619570
      Gh(H)           0.438728000000     0.730363000000    -0.438728000000     1.007825032230
      Gh(H)           0.434396000000    -0.769465000000    -0.434396000000     1.007825032230
         BR           3.212066000000     0.000000000000     0.000000000000    78.918337600000

  Charge       = -1
  Multiplicity = 1
  Basis Set: AUG-CC-PVTZ
    Blend: AUG-CC-PVTZ
  Basis Set: (AUG-CC-PVTZ AUX)
    Blend: AUG-CC-PVTZ-JKFIT

    Orbital Energies [Eh]
    ---------------------

    Doubly Occupied:

       1A   -489.720583     2A    -64.860610     3A    -58.215089
       4A    -58.215089     5A    -58.215086     6A     -9.532901
       7A     -7.140247     8A     -7.140246     9A     -7.140235
      10A     -2.881917    11A     -2.881917    12A     -2.881916
      13A     -2.881912    14A     -2.881899    15A     -0.685997
      16A     -0.139337    17A     -0.139336    18A     -0.139336

  @DF-RHF Final Energy: -2572.53367697462545

   => Energetics <=

    Nuclear Repulsion Energy =              0.0000000000000000
    One-Electron Energy =               -3593.6800442553499124
    Two-Electron Energy =                1021.1463672807243483
    Total Energy =                      -2572.5336769746254504
 Dipole X            :       -218.5173090          212.4473763           -6.0699327
 Dipole Y            :          0.0000023            0.0000000            0.0000023
 Dipole Z            :          0.0000437            0.0000000            0.0000437
 Magnitude           :                                                    6.0699327

    SAPT Results
  --------------------------------------------------------------------------------------------------------
    Electrostatics                -17.10513892 [mEh]     -10.73363673 [kcal/mol]     -44.90953606 [kJ/mol]
      Elst10,r                    -16.65829456 [mEh]     -10.45323765 [kcal/mol]     -43.73634633 [kJ/mol]
      Elst12,r                     -0.44684437 [mEh]      -0.28039907 [kcal/mol]      -1.17318973 [kJ/mol]

    Exchange                       17.32669584 [mEh]      10.87266579 [kcal/mol]      45.49123365 [kJ/mol]
      Exch10                       15.32921133 [mEh]       9.61922533 [kcal/mol]      40.24683880 [kJ/mol]
      Exch10(S^2)                  15.19364998 [mEh]       9.53415930 [kcal/mol]      39.89092252 [kJ/mol]
      Exch11(S^2)                   0.49372369 [mEh]       0.30981629 [kcal/mol]       1.29627137 [kJ/mol]
      Exch12(S^2)                   1.50376082 [mEh]       0.94362416 [kcal/mol]       3.94812348 [kJ/mol]

    Induction                      -4.28454043 [mEh]      -2.68858971 [kcal/mol]     -11.24905934 [kJ/mol]
      Ind20,r                     -14.17783442 [mEh]      -8.89672542 [kcal/mol]     -37.22389915 [kJ/mol]
      Ind22                        -2.36893206 [mEh]      -1.48652731 [kcal/mol]      -6.21963026 [kJ/mol]
      Exch-Ind20,r                 11.27438349 [mEh]       7.07478245 [kcal/mol]      29.60088978 [kJ/mol]
      Exch-Ind22                    1.88380310 [mEh]       1.18210429 [kcal/mol]       4.94592436 [kJ/mol]
      delta HF,r (2)               -0.89596054 [mEh]      -0.56222373 [kcal/mol]      -2.35234408 [kJ/mol]

    Dispersion                     -5.78524192 [mEh]      -3.63029411 [kcal/mol]     -15.18915057 [kJ/mol]
      Disp20                       -6.80511201 [mEh]      -4.27027225 [kcal/mol]     -17.86681911 [kJ/mol]
      Disp21                        0.45217241 [mEh]       0.28374247 [kcal/mol]       1.18717849 [kJ/mol]
      Disp22 (SDQ)                 -0.07212977 [mEh]      -0.04526212 [kcal/mol]      -0.18937670 [kJ/mol]
      Disp22 (T)                   -1.04006128 [mEh]      -0.65264831 [kcal/mol]      -2.73068051 [kJ/mol]
      Est. Disp22 (T)              -1.21771405 [mEh]      -0.76412710 [kcal/mol]      -3.19710780 [kJ/mol]
      Exch-Disp20                   1.85754150 [mEh]       1.16562489 [kcal/mol]       4.87697454 [kJ/mol]

  Total HF                         -5.12849470 [mEh]      -3.21817901 [kcal/mol]     -13.46486098 [kJ/mol]
  Total SAPT0                     -10.07606520 [mEh]      -6.32282637 [kcal/mol]     -26.45470555 [kJ/mol]
  Total SAPT2                      -9.01055402 [mEh]      -5.65420801 [kcal/mol]     -23.65720632 [kJ/mol]
  Total SAPT2+                     -9.84822544 [mEh]      -6.17985476 [kcal/mol]     -25.85651233 [kJ/mol]

  Special recipe for scaled SAPT0 (see Manual):
    Electrostatics sSAPT0         -16.65829456 [mEh]     -10.45323765 [kcal/mol]     -43.73634633 [kJ/mol]
    Exchange sSAPT0                15.32921133 [mEh]       9.61922533 [kcal/mol]      40.24683880 [kJ/mol]
    Induction sSAPT0               -3.49493275 [mEh]      -2.19310341 [kcal/mol]      -9.17594468 [kJ/mol]
    Dispersion sSAPT0              -4.89740529 [mEh]      -3.07316822 [kcal/mol]     -12.85813582 [kJ/mol]
  Total sSAPT0                     -9.72142127 [mEh]      -6.10028395 [kcal/mol]     -25.52358803 [kJ/mol]
  --------------------------------------------------------------------------------------------------------

*** Psi4 exiting successfully. Buy a developer a beer!
