                               Psi4 1.9 release

  ==> Input File <==

--------------------------------------------------------------------------
MEMORY 60 GB

molecule dimer {
0 1
O      0.000000     0.000000     0.000000
H     -0.444703     0.369011     0.770248
H     -0.062565    -0.954754     0.108366
--
1 1
Li     1.828878     0.000000     0.000000

units ang
no_reorient
no_com
symmetry c1
}

set {
basis        aug-cc-pVTZ
scf_type     df
}

energy("sapt2+")
--------------------------------------------------------------------------

  //              Dimer HF             //
    Molecular point group: c1
  Charge       = 1
  Multiplicity = 1
  Basis Set: AUG-CC-PVTZ
    Blend: AUG-CC-PVTZ
  Basis Set: (AUG-CC-PVTZ AUX)
    Blend: AUG-CC-PVTZ-JKFIT + DEF2-UNIVERSAL-JKFIT
  @DF-RHF Final Energy:   -83.34030896710020
    Total Energy =                        -83.3403089671001993
 Dipole X            :         -6.7147318            9.4096380            2.6949063
 Dipole Y            :          0.6973839           -1.1068938           -0.4095100
 Dipole Z            :         -1.0221183            1.6603398            0.6382215
 Magnitude           :                                                    2.7995615
  //            Monomer A HF           //
    Molecular point group: c1
  Multiplicity = 1
  Basis Set: AUG-CC-PVTZ
    Blend: AUG-CC-PVTZ
  Basis Set: (AUG-CC-PVTZ AUX)
    Blend: AUG-CC-PVTZ-JKFIT + DEF2-UNIVERSAL-JKFIT
  @DF-RHF Final Energy:   -76.06026849305114
    Total Energy =                        -76.0602684930511401
  //            Monomer B HF           //
    Molecular point group: c1

    Geometry (in Angstrom), charge = 1, multiplicity = 1:

       Center              X                  Y                   Z               Mass
    ------------   -----------------  -----------------  -----------------  -----------------
      Gh(O)           0.000000000000     0.000000000000     0.000000000000    15.994914619570
      Gh(H)          -0.444703000000     0.369011000000     0.770248000000     1.007825032230
      Gh(H)          -0.062565000000    -0.954754000000     0.108366000000     1.007825032230
         LI           1.828878000000     0.000000000000     0.000000000000     7.016003436600

  Charge       = 1
  Multiplicity = 1
  Basis Set: AUG-CC-PVTZ
    Blend: AUG-CC-PVTZ
  Basis Set: (AUG-CC-PVTZ AUX)
    Blend: AUG-CC-PVTZ-JKFIT + DEF2-UNIVERSAL-JKFIT

    Orbital Energies [Eh]
    ---------------------

    Doubly Occupied:

       1A     -2.792368

  @DF-RHF Final Energy:    -7.23638356419626

   => Energetics <=

    Nuclear Repulsion Energy =              0.0000000000000000
    One-Electron Energy =                  -8.8880317369267487
    Two-Electron Energy =                   1.6516481727304917
    Total Energy =                         -7.2363835641962568
 Dipole X            :         -6.9121753           10.3682356            3.4560603
 Dipole Y            :         -0.0000083            0.0000000           -0.0000083
 Dipole Z            :          0.0000230            0.0000000            0.0000230
 Magnitude           :                                                    3.4560603

    SAPT Results
  --------------------------------------------------------------------------------------------------------
    Electrostatics                -45.95826078 [mEh]     -28.83924403 [kcal/mol]    -120.66339704 [kJ/mol]
      Elst10,r                    -47.79903846 [mEh]     -29.99434947 [kcal/mol]    -125.49635819 [kJ/mol]
      Elst12,r                      1.84077768 [mEh]       1.15510544 [kcal/mol]       4.83296114 [kJ/mol]

    Exchange                       26.63972724 [mEh]      16.71668122 [kcal/mol]      69.94259424 [kJ/mol]
      Exch10                       24.57093151 [mEh]      15.41849230 [kcal/mol]      64.51097180 [kJ/mol]
      Exch10(S^2)                  24.41572544 [mEh]      15.32109903 [kcal/mol]      64.10347832 [kJ/mol]
      Exch11(S^2)                  -0.10091427 [mEh]      -0.06332466 [kcal/mol]      -0.26495038 [kJ/mol]
      Exch12(S^2)                   2.16971000 [mEh]       1.36151358 [kcal/mol]       5.69657281 [kJ/mol]

    Induction                     -22.20078161 [mEh]     -13.93120079 [kcal/mol]     -58.28814409 [kJ/mol]
      Ind20,r                     -37.37863067 [mEh]     -23.45544486 [kcal/mol]     -98.13758131 [kJ/mol]
      Ind22                        -3.58801219 [mEh]      -2.25151164 [kcal/mol]      -9.42032470 [kJ/mol]
      Exch-Ind20,r                 18.91878880 [mEh]      11.87171921 [kcal/mol]      49.67127316 [kJ/mol]
      Exch-Ind22                    1.81603348 [mEh]       1.13957821 [kcal/mol]       4.76799525 [kJ/mol]
      delta HF,r (2)               -1.96896104 [mEh]      -1.23554171 [kcal/mol]      -5.16950650 [kJ/mol]

    Dispersion                     -1.03717163 [mEh]      -0.65083502 [kcal/mol]      -2.72309374 [kJ/mol]
      Disp20                       -1.01398014 [mEh]      -0.63628214 [kcal/mol]      -2.66220448 [kJ/mol]
      Disp21                       -0.05810803 [mEh]      -0.03646334 [kcal/mol]      -0.15256262 [kJ/mol]
      Disp22 (SDQ)                 -0.02126141 [mEh]      -0.01334174 [kcal/mol]      -0.05582183 [kJ/mol]
      Disp22 (T)                   -0.05463211 [mEh]      -0.03428217 [kcal/mol]      -0.14343658 [kJ/mol]
      Est. Disp22 (T)              -0.06941646 [mEh]      -0.04355949 [kcal/mol]      -0.18225290 [kJ/mol]
      Exch-Disp20                   0.12559441 [mEh]       0.07881168 [kcal/mol]       0.32974808 [kJ/mol]

  Total HF                        -43.65690985 [mEh]     -27.39512453 [kcal/mol]    -114.62120103 [kJ/mol]
  Total SAPT0                     -44.54529558 [mEh]     -27.95259499 [kcal/mol]    -116.95365743 [kJ/mol]
  Total SAPT2                     -42.40770087 [mEh]     -26.61123406 [kcal/mol]    -111.34140329 [kJ/mol]
  Total SAPT2+                    -42.55648678 [mEh]     -26.70459862 [kcal/mol]    -111.73204064 [kJ/mol]

  Special recipe for scaled SAPT0 (see Manual):
    Electrostatics sSAPT0         -47.79903846 [mEh]     -29.99434947 [kcal/mol]    -125.49635819 [kJ/mol]
    Exchange sSAPT0                24.57093151 [mEh]      15.41849230 [kcal/mol]      64.51097180 [kJ/mol]
    Induction sSAPT0              -20.06571528 [mEh]     -12.59142643 [kcal/mol]     -52.68252820 [kJ/mol]
    Dispersion sSAPT0              -0.88597533 [mEh]      -0.55595791 [kcal/mol]      -2.32612790 [kJ/mol]
  Total sSAPT0                    -44.17979755 [mEh]     -27.72324151 [kcal/mol]    -115.99404249 [kJ/mol]
  --------------------------------------------------------------------------------------------------------

*** Psi4 exiting successfully. Buy a developer a beer!
