                               Psi4 1.9 release

  ==> Input File <==

--------------------------------------------------------------------------
MEMORY 60 GB

molecule dimer {
0 1
O      0.000000     0.000000     0.000000
H      0.184505     0.889406    -0.319573
H     -0.477377     0.125130     0.826841
--
1 1
Li     1.828878     0.000000     0.000000

units ang
no_reorient
no_com
symmetry c1
}

set {
basis        aug-cc-pVTZ
scf_type     df
}

energy("sapt2+")
--------------------------------------------------------------------------

  //              Dimer HF             //
    Molecular point group: c1
  Charge       = 1
  Multiplicity = 1
  Basis Set: AUG-CC-PVTZ
    Blend: AUG-CC-PVTZ
  Basis Set: (AUG-CC-PVTZ AUX)
    Blend: AUG-CC-PVTZ-JKFIT + DEF2-UNIVERSAL-JKFIT
  @DF-RHF Final Energy:   -83.33006435572239
    Total Energy =                        -83.3300643557223850
 Dipole X            :         -6.9810273            9.8147877            2.8337605
 Dipole Y            :         -1.2092610            1.9171952            0.7079342
 Dipole Z            :         -0.5747526            0.9585976            0.3838450
 Magnitude           :                                                    2.9459644
  //            Monomer A HF           //
    Molecular point group: c1
  Multiplicity = 1
  Basis Set: AUG-CC-PVTZ
    Blend: AUG-CC-PVTZ
  Basis Set: (AUG-CC-PVTZ AUX)
    Blend: AUG-CC-PVTZ-JKFIT + DEF2-UNIVERSAL-JKFIT
  @DF-RHF Final Energy:   -76.06026875762751
    Total Energy =                        -76.0602687576275116
  //            Monomer B HF           //
    Molecular point group: c1

    Geometry (in Angstrom), charge = 1, multiplicity = 1:

       Center              X                  Y                   Z               Mass
    ------------   -----------------  -----------------  -----------------  -----------------
      Gh(O)           0.000000000000     0.000000000000     0.000000000000    15.994914619570
      Gh(H)           0.184505000000     0.889406000000    -0.319573000000     1.007825032230
      Gh(H)          -0.477377000000     0.125130000000     0.826841000000     1.007825032230
         LI           1.828878000000     0.000000000000     0.000000000000     7.016003436600

  Charge       = 1
  Multiplicity = 1
  Basis Set: AUG-CC-PVTZ
    Blend: AUG-CC-PVTZ
  Basis Set: (AUG-CC-PVTZ AUX)
    Blend: AUG-CC-PVTZ-JKFIT + DEF2-UNIVERSAL-JKFIT

    Orbital Energies [Eh]
    ---------------------

    Doubly Occupied:

       1A     -2.792368

  @DF-RHF Final Energy:    -7.23638356107472

   => Energetics <=

    Nuclear Repulsion Energy =              0.0000000000000000
    One-Electron Energy =                  -8.8880317737855226
    Two-Electron Energy =                   1.6516482127108023
    Total Energy =                         -7.2363835610747200
 Dipole X            :         -6.9121776           10.3682356            3.4560580
 Dipole Y            :          0.0000085            0.0000000            0.0000085
 Dipole Z            :          0.0000169            0.0000000            0.0000169
 Magnitude           :                                                    3.4560580

    SAPT Results
  --------------------------------------------------------------------------------------------------------
    Electrostatics                -36.02716983 [mEh]     -22.60739038 [kcal/mol]     -94.58932135 [kJ/mol]
      Elst10,r                    -37.28048417 [mEh]     -23.39385700 [kcal/mol]     -97.87989770 [kJ/mol]
      Elst12,r                      1.25331434 [mEh]       0.78646662 [kcal/mol]       3.29057635 [kJ/mol]

    Exchange                       26.80038102 [mEh]      16.81749299 [kcal/mol]      70.36439067 [kJ/mol]
      Exch10                       24.59388293 [mEh]      15.43289454 [kcal/mol]      64.57123074 [kJ/mol]
      Exch10(S^2)                  24.43841235 [mEh]      15.33533528 [kcal/mol]      64.16304279 [kJ/mol]
      Exch11(S^2)                  -0.13401732 [mEh]      -0.08409714 [kcal/mol]      -0.35186243 [kJ/mol]
      Exch12(S^2)                   2.34051541 [mEh]       1.46869559 [kcal/mol]       6.14502236 [kJ/mol]

    Induction                     -22.59420114 [mEh]     -14.17807527 [kcal/mol]     -59.32106693 [kJ/mol]
      Ind20,r                     -37.52590445 [mEh]     -23.54786055 [kcal/mol]     -98.52424855 [kJ/mol]
      Ind22                        -3.77444090 [mEh]      -2.36849743 [kcal/mol]      -9.90979323 [kJ/mol]
      Exch-Ind20,r                 18.94643478 [mEh]      11.88906732 [kcal/mol]      49.74385766 [kJ/mol]
      Exch-Ind22                    1.90567554 [mEh]       1.19582946 [kcal/mol]       5.00335045 [kJ/mol]
      delta HF,r (2)               -2.14596611 [mEh]      -1.34661407 [kcal/mol]      -5.63423326 [kJ/mol]

    Dispersion                     -1.07758085 [mEh]      -0.67619219 [kcal/mol]      -2.82918814 [kJ/mol]
      Disp20                       -1.04859755 [mEh]      -0.65800490 [kcal/mol]      -2.75309250 [kJ/mol]
      Disp21                       -0.06056052 [mEh]      -0.03800230 [kcal/mol]      -0.15900163 [kJ/mol]
      Disp22 (SDQ)                 -0.02265809 [mEh]      -0.01421817 [kcal/mol]      -0.05948881 [kJ/mol]
      Disp22 (T)                   -0.05716185 [mEh]      -0.03586960 [kcal/mol]      -0.15007841 [kJ/mol]
      Est. Disp22 (T)              -0.07250748 [mEh]      -0.04549913 [kcal/mol]      -0.19036837 [kJ/mol]
      Exch-Disp20                   0.12674280 [mEh]       0.07953231 [kcal/mol]       0.33276317 [kJ/mol]

  Total HF                        -33.41203702 [mEh]     -20.96636977 [kcal/mol]     -87.72329111 [kJ/mol]
  Total SAPT0                     -34.33389178 [mEh]     -21.54484236 [kcal/mol]     -90.14362044 [kJ/mol]
  Total SAPT2                     -32.74284471 [mEh]     -20.54644525 [kcal/mol]     -85.96632693 [kJ/mol]
  Total SAPT2+                    -32.89857080 [mEh]     -20.64416485 [kcal/mol]     -86.37518574 [kJ/mol]

  Special recipe for scaled SAPT0 (see Manual):
    Electrostatics sSAPT0         -37.28048417 [mEh]     -23.39385700 [kcal/mol]     -97.87989770 [kJ/mol]
    Exchange sSAPT0                24.59388293 [mEh]      15.43289454 [kcal/mol]      64.57123074 [kJ/mol]
    Induction sSAPT0              -20.36153422 [mEh]     -12.77705562 [kcal/mol]     -53.45920073 [kJ/mol]
    Dispersion sSAPT0              -0.91942043 [mEh]      -0.57694503 [kcal/mol]      -2.41393799 [kJ/mol]
  Total sSAPT0                    -33.96755588 [mEh]     -21.31496312 [kcal/mol]     -89.18180568 [kJ/mol]
  --------------------------------------------------------------------------------------------------------

*** Psi4 exiting successfully. Buy a developer a beer!
