                               Psi4 1.9 release

  ==> Input File <==

--------------------------------------------------------------------------
MEMORY 60 GB

molecule dimer {
0 1
O      0.000000     0.000000     0.000000
H     -0.292872     0.764276     0.507268
H     -0.292872    -0.764276     0.507268
--
1 1
Li     1.828878     0.000000     0.000000

units ang
no_reorient
no_com
symmetry c1
}

set {
basis        aug-cc-pVTZ
scf_type     df
}

energy("sapt2+")
--------------------------------------------------------------------------

  //              Dimer HF             //
    Molecular point group: c1
  Charge       = 1
  Multiplicity = 1
  Basis Set: AUG-CC-PVTZ
    Blend: AUG-CC-PVTZ
  Basis Set: (AUG-CC-PVTZ AUX)
    Blend: AUG-CC-PVTZ-JKFIT + DEF2-UNIVERSAL-JKFIT
  @DF-RHF Final Energy:   -83.34392303633649
    Total Energy =                        -83.3439230363364914
 Dipole X            :         -6.6176528            9.2613399            2.6436871
 Dipole Y            :         -0.0000000            0.0000000           -0.0000000
 Dipole Z            :         -1.1848811            1.9171952            0.7323141
 Magnitude           :                                                    2.7432399
  //            Monomer A HF           //
    Molecular point group: c1
  Multiplicity = 1
  Basis Set: AUG-CC-PVTZ
    Blend: AUG-CC-PVTZ
  Basis Set: (AUG-CC-PVTZ AUX)
    Blend: AUG-CC-PVTZ-JKFIT + DEF2-UNIVERSAL-JKFIT
  @DF-RHF Final Energy:   -76.06026815570910
    Total Energy =                        -76.0602681557091103
  //            Monomer B HF           //
    Molecular point group: c1

    Geometry (in Angstrom), charge = 1, multiplicity = 1:

       Center              X                  Y                   Z               Mass
    ------------   -----------------  -----------------  -----------------  -----------------
      Gh(O)           0.000000000000     0.000000000000     0.000000000000    15.994914619570
      Gh(H)          -0.292872000000     0.764276000000     0.507268000000     1.007825032230
      Gh(H)          -0.292872000000    -0.764276000000     0.507268000000     1.007825032230
         LI           1.828878000000     0.000000000000     0.000000000000     7.016003436600

  Charge       = 1
  Multiplicity = 1
  Basis Set: AUG-CC-PVTZ
    Blend: AUG-CC-PVTZ
  Basis Set: (AUG-CC-PVTZ AUX)
    Blend: AUG-CC-PVTZ-JKFIT + DEF2-UNIVERSAL-JKFIT

    Orbital Energies [Eh]
    ---------------------

    Doubly Occupied:

       1A     -2.792368

  @DF-RHF Final Energy:    -7.23638354964548

   => Energetics <=

    Nuclear Repulsion Energy =              0.0000000000000000
    One-Electron Energy =                  -8.8880315231177516
    Two-Electron Energy =                   1.6516479734722700
    Total Energy =                         -7.2363835496454811
 Dipole X            :         -6.9121728           10.3682356            3.4560628
 Dipole Y            :         -0.0000000            0.0000000           -0.0000000
 Dipole Z            :          0.0000283            0.0000000            0.0000283
 Magnitude           :                                                    3.4560628

    SAPT Results
  --------------------------------------------------------------------------------------------------------
    Electrostatics                -49.65678469 [mEh]     -31.16010283 [kcal/mol]    -130.37387023 [kJ/mol]
      Elst10,r                    -51.72008441 [mEh]     -32.45484295 [kcal/mol]    -135.79106291 [kJ/mol]
      Elst12,r                      2.06329972 [mEh]       1.29474012 [kcal/mol]       5.41719268 [kJ/mol]

    Exchange                       26.85863820 [mEh]      16.85404992 [kcal/mol]      70.51734488 [kJ/mol]
      Exch10                       24.83433412 [mEh]      15.58377994 [kcal/mol]      65.20253526 [kJ/mol]
      Exch10(S^2)                  24.67578332 [mEh]      15.48428780 [kcal/mol]      64.78626017 [kJ/mol]
      Exch11(S^2)                  -0.09027575 [mEh]      -0.05664889 [kcal/mol]      -0.23701896 [kJ/mol]
      Exch12(S^2)                   2.11457983 [mEh]       1.32691888 [kcal/mol]       5.55182858 [kJ/mol]

    Induction                     -22.12209345 [mEh]     -13.88182322 [kcal/mol]     -58.08154836 [kJ/mol]
      Ind20,r                     -37.53658523 [mEh]     -23.55456284 [kcal/mol]     -98.55229094 [kJ/mol]
      Ind22                        -3.53127821 [mEh]      -2.21591053 [kcal/mol]      -9.27136967 [kJ/mol]
      Exch-Ind20,r                 19.07789827 [mEh]      11.97156190 [kcal/mol]      50.08901501 [kJ/mol]
      Exch-Ind22                    1.79476546 [mEh]       1.12623233 [kcal/mol]       4.71215606 [kJ/mol]
      delta HF,r (2)               -1.92689374 [mEh]      -1.20914407 [kcal/mol]      -5.05905881 [kJ/mol]

    Dispersion                     -1.02781765 [mEh]      -0.64496531 [kcal/mol]      -2.69853486 [kJ/mol]
      Disp20                       -1.00699932 [mEh]      -0.63190161 [kcal/mol]      -2.64387635 [kJ/mol]
      Disp21                       -0.05798907 [mEh]      -0.03638869 [kcal/mol]      -0.15225028 [kJ/mol]
      Disp22 (SDQ)                 -0.02072318 [mEh]      -0.01300399 [kcal/mol]      -0.05440871 [kJ/mol]
      Disp22 (T)                   -0.05425096 [mEh]      -0.03404299 [kcal/mol]      -0.14243588 [kJ/mol]
      Est. Disp22 (T)              -0.06863367 [mEh]      -0.04306828 [kcal/mol]      -0.18019769 [kJ/mol]
      Exch-Disp20                   0.12652760 [mEh]       0.07939727 [kcal/mol]       0.33219818 [kJ/mol]

  Total HF                        -47.27133098 [mEh]     -29.66320803 [kcal/mol]    -124.11086239 [kJ/mol]
  Total SAPT0                     -48.15180270 [mEh]     -30.21571237 [kcal/mol]    -126.42254057 [kJ/mol]
  Total SAPT2                     -45.80071165 [mEh]     -28.74038047 [kcal/mol]    -120.24975188 [kJ/mol]
  Total SAPT2+                    -45.94805758 [mEh]     -28.83284144 [kcal/mol]    -120.63660856 [kJ/mol]

  Special recipe for scaled SAPT0 (see Manual):
    Electrostatics sSAPT0         -51.72008441 [mEh]     -32.45484295 [kcal/mol]    -135.79106291 [kJ/mol]
    Exchange sSAPT0                24.83433412 [mEh]      15.58377994 [kcal/mol]      65.20253526 [kJ/mol]
    Induction sSAPT0              -20.01546559 [mEh]     -12.55989428 [kcal/mol]     -52.55059767 [kJ/mol]
    Dispersion sSAPT0              -0.87801706 [mEh]      -0.55096402 [kcal/mol]      -2.30523346 [kJ/mol]
  Total sSAPT0                    -47.77923294 [mEh]     -29.98192132 [kcal/mol]    -125.44435879 [kJ/mol]
  --------------------------------------------------------------------------------------------------------

*** Psi4 exiting successfully. Buy a developer a beer!
