                               Psi4 1.9 release

  ==> Input File <==

--------------------------------------------------------------------------
MEMORY 60 GB

molecule dimer {
0 1
O      0.000000     0.000000     0.000000
H     -0.381797     0.586632     0.661291
H     -0.183988    -0.889835     0.318676
--
1 1
Li     1.828878     0.000000     0.000000

units ang
no_reorient
no_com
symmetry c1
}

set {
basis        aug-cc-pVTZ
scf_type     df
}

energy("sapt2+")
--------------------------------------------------------------------------

  //              Dimer HF             //
    Molecular point group: c1
  Charge       = 1
  Multiplicity = 1
  Basis Set: AUG-CC-PVTZ
    Blend: AUG-CC-PVTZ
  Basis Set: (AUG-CC-PVTZ AUX)
    Blend: AUG-CC-PVTZ-JKFIT + DEF2-UNIVERSAL-JKFIT
  @DF-RHF Final Energy:   -83.34301010661542
    Total Energy =                        -83.3430101066154236
 Dipole X            :         -6.6423183            9.2990569            2.6567387
 Dipole Y            :          0.3608054           -0.5729706           -0.2121652
 Dipole Z            :         -1.1435332            1.8518692            0.7083360
 Magnitude           :                                                    2.7577190
  //            Monomer A HF           //
    Molecular point group: c1
  Multiplicity = 1
  Basis Set: AUG-CC-PVTZ
    Blend: AUG-CC-PVTZ
  Basis Set: (AUG-CC-PVTZ AUX)
    Blend: AUG-CC-PVTZ-JKFIT + DEF2-UNIVERSAL-JKFIT
  @DF-RHF Final Energy:   -76.06026828748671
    Total Energy =                        -76.0602682874867071
  //            Monomer B HF           //
    Molecular point group: c1

    Geometry (in Angstrom), charge = 1, multiplicity = 1:

       Center              X                  Y                   Z               Mass
    ------------   -----------------  -----------------  -----------------  -----------------
      Gh(O)           0.000000000000     0.000000000000     0.000000000000    15.994914619570
      Gh(H)          -0.381797000000     0.586632000000     0.661291000000     1.007825032230
      Gh(H)          -0.183988000000    -0.889835000000     0.318676000000     1.007825032230
         LI           1.828878000000     0.000000000000     0.000000000000     7.016003436600

  Charge       = 1
  Multiplicity = 1
  Basis Set: AUG-CC-PVTZ
    Blend: AUG-CC-PVTZ
  Basis Set: (AUG-CC-PVTZ AUX)
    Blend: AUG-CC-PVTZ-JKFIT + DEF2-UNIVERSAL-JKFIT

    Orbital Energies [Eh]
    ---------------------

    Doubly Occupied:

       1A     -2.792368

  @DF-RHF Final Energy:    -7.23638355603290

   => Energetics <=

    Nuclear Repulsion Energy =              0.0000000000000000
    One-Electron Energy =                  -8.8880315853794549
    Two-Electron Energy =                   1.6516480293465561
    Total Energy =                         -7.2363835560328988
 Dipole X            :         -6.9121735           10.3682356            3.4560621
 Dipole Y            :         -0.0000047            0.0000000           -0.0000047
 Dipole Z            :          0.0000267            0.0000000            0.0000267
 Magnitude           :                                                    3.4560621

    SAPT Results
  --------------------------------------------------------------------------------------------------------
    Electrostatics                -48.71309290 [mEh]     -30.56792729 [kcal/mol]    -127.89620778 [kJ/mol]
      Elst10,r                    -50.71905937 [mEh]     -31.82669026 [kcal/mol]    -133.16287204 [kJ/mol]
      Elst12,r                      2.00596648 [mEh]       1.25876297 [kcal/mol]       5.26666426 [kJ/mol]

    Exchange                       26.78982135 [mEh]      16.81086670 [kcal/mol]      70.33666626 [kJ/mol]
      Exch10                       24.75447599 [mEh]      15.53366820 [kcal/mol]      64.99286777 [kJ/mol]
      Exch10(S^2)                  24.59694321 [mEh]      15.43481489 [kcal/mol]      64.57926549 [kJ/mol]
      Exch11(S^2)                  -0.09291607 [mEh]      -0.05830572 [kcal/mol]      -0.24395112 [kJ/mol]
      Exch12(S^2)                   2.12826143 [mEh]       1.33550421 [kcal/mol]       5.58774961 [kJ/mol]

    Induction                     -22.13917513 [mEh]     -13.89254214 [kcal/mol]     -58.12639629 [kJ/mol]
      Ind20,r                     -37.48696533 [mEh]     -23.52342589 [kcal/mol]     -98.42201391 [kJ/mol]
      Ind22                        -3.54515025 [mEh]      -2.22461537 [kcal/mol]      -9.30779071 [kJ/mol]
      Exch-Ind20,r                 19.02982772 [mEh]      11.94139718 [kcal/mol]      49.96280580 [kJ/mol]
      Exch-Ind22                    1.79965484 [mEh]       1.12930046 [kcal/mol]       4.72499313 [kJ/mol]
      delta HF,r (2)               -1.93654211 [mEh]      -1.21519852 [kcal/mol]      -5.08439060 [kJ/mol]

    Dispersion                     -1.02999168 [mEh]      -0.64632954 [kcal/mol]      -2.70424279 [kJ/mol]
      Disp20                       -1.00853766 [mEh]      -0.63286694 [kcal/mol]      -2.64791526 [kJ/mol]
      Disp21                       -0.05798453 [mEh]      -0.03638584 [kcal/mol]      -0.15223837 [kJ/mol]
      Disp22 (SDQ)                 -0.02085852 [mEh]      -0.01308892 [kcal/mol]      -0.05476403 [kJ/mol]
      Disp22 (T)                   -0.05416414 [mEh]      -0.03398851 [kcal/mol]      -0.14220794 [kJ/mol]
      Est. Disp22 (T)              -0.06881868 [mEh]      -0.04318438 [kcal/mol]      -0.18068343 [kJ/mol]
      Exch-Disp20                   0.12620771 [mEh]       0.07919653 [kcal/mol]       0.33135829 [kJ/mol]

  Total HF                        -46.35826310 [mEh]     -29.09024928 [kcal/mol]    -121.71360299 [kJ/mol]
  Total SAPT0                     -47.24059305 [mEh]     -29.64391968 [kcal/mol]    -124.03015996 [kJ/mol]
  Total SAPT2                     -44.94477663 [mEh]     -28.20327313 [kcal/mol]    -118.00249478 [kJ/mol]
  Total SAPT2+                    -45.09243836 [mEh]     -28.29593227 [kcal/mol]    -118.39018060 [kJ/mol]

  Special recipe for scaled SAPT0 (see Manual):
    Electrostatics sSAPT0         -50.71905937 [mEh]     -31.82669026 [kcal/mol]    -133.16287204 [kJ/mol]
    Exchange sSAPT0                24.75447599 [mEh]      15.53366820 [kcal/mol]      64.99286777 [kJ/mol]
    Induction sSAPT0              -20.02569954 [mEh]     -12.56631618 [kcal/mol]     -52.57746689 [kJ/mol]
    Dispersion sSAPT0              -0.87988947 [mEh]      -0.55213898 [kcal/mol]      -2.31014949 [kJ/mol]
  Total sSAPT0                    -46.87017239 [mEh]     -29.41147721 [kcal/mol]    -123.05762064 [kJ/mol]
  --------------------------------------------------------------------------------------------------------

*** Psi4 exiting successfully. Buy a developer a beer!
