                               Psi4 1.9 release

  ==> Input File <==

--------------------------------------------------------------------------
MEMORY 60 GB

molecule dimer {
0 1
O      0.000000     0.000000     0.000000
H      0.063121     0.954608    -0.109329
H     -0.477304    -0.126242     0.826714
--
1 1
Li     1.828878     0.000000     0.000000

units ang
no_reorient
no_com
symmetry c1
}

set {
basis        aug-cc-pVTZ
scf_type     df
}

energy("sapt2+")
--------------------------------------------------------------------------

  //              Dimer HF             //
    Molecular point group: c1
  Charge       = 1
  Multiplicity = 1
  Basis Set: AUG-CC-PVTZ
    Blend: AUG-CC-PVTZ
  Basis Set: (AUG-CC-PVTZ AUX)
    Blend: AUG-CC-PVTZ-JKFIT + DEF2-UNIVERSAL-JKFIT
  @DF-RHF Final Energy:   -83.33593051807696
    Total Energy =                        -83.3359305180769638
 Dipole X            :         -6.8301953            9.5855432            2.7553478
 Dipole Y            :         -0.9869297            1.5653849            0.5784551
 Dipole Z            :         -0.8283655            1.3556612            0.5272957
 Magnitude           :                                                    2.8643660
  //            Monomer A HF           //
    Molecular point group: c1
  Multiplicity = 1
  Basis Set: AUG-CC-PVTZ
    Blend: AUG-CC-PVTZ
  Basis Set: (AUG-CC-PVTZ AUX)
    Blend: AUG-CC-PVTZ-JKFIT + DEF2-UNIVERSAL-JKFIT
  @DF-RHF Final Energy:   -76.06026860919195
    Total Energy =                        -76.0602686091919367
  //            Monomer B HF           //
    Molecular point group: c1

    Geometry (in Angstrom), charge = 1, multiplicity = 1:

       Center              X                  Y                   Z               Mass
    ------------   -----------------  -----------------  -----------------  -----------------
      Gh(O)           0.000000000000     0.000000000000     0.000000000000    15.994914619570
      Gh(H)           0.063121000000     0.954608000000    -0.109329000000     1.007825032230
      Gh(H)          -0.477304000000    -0.126242000000     0.826714000000     1.007825032230
         LI           1.828878000000     0.000000000000     0.000000000000     7.016003436600

  Charge       = 1
  Multiplicity = 1
  Basis Set: AUG-CC-PVTZ
    Blend: AUG-CC-PVTZ
  Basis Set: (AUG-CC-PVTZ AUX)
    Blend: AUG-CC-PVTZ-JKFIT + DEF2-UNIVERSAL-JKFIT

    Orbital Energies [Eh]
    ---------------------

    Doubly Occupied:

       1A     -2.792368

  @DF-RHF Final Energy:    -7.23638356136745

   => Energetics <=

    Nuclear Repulsion Energy =              0.0000000000000000
    One-Electron Energy =                  -8.8880317967325446
    Two-Electron Energy =                   1.6516482353650979
    Total Energy =                         -7.2363835613674468
 Dipole X            :         -6.9121772           10.3682356            3.4560584
 Dipole Y            :          0.0000096            0.0000000            0.0000096
 Dipole Z            :          0.0000191            0.0000000            0.0000191
 Magnitude           :                                                    3.4560584

    SAPT Results
  --------------------------------------------------------------------------------------------------------
    Electrostatics                -41.61286385 [mEh]     -26.11246629 [kcal/mol]    -109.25455898 [kJ/mol]
      Elst10,r                    -43.19711147 [mEh]     -27.10659669 [kcal/mol]    -113.41400054 [kJ/mol]
      Elst12,r                      1.58424762 [mEh]       0.99413039 [kcal/mol]       4.15944156 [kJ/mol]

    Exchange                       26.56685251 [mEh]      16.67095164 [kcal/mol]      69.75126166 [kJ/mol]
      Exch10                       24.44230495 [mEh]      15.33777791 [kcal/mol]      64.17326280 [kJ/mol]
      Exch10(S^2)                  24.28872111 [mEh]      15.24140260 [kcal/mol]      63.77002848 [kJ/mol]
      Exch11(S^2)                  -0.11450408 [mEh]      -0.07185239 [kcal/mol]      -0.30063042 [kJ/mol]
      Exch12(S^2)                   2.23905164 [mEh]       1.40502612 [kcal/mol]       5.87862928 [kJ/mol]

    Induction                     -22.33750798 [mEh]     -14.01699788 [kcal/mol]     -58.64711911 [kJ/mol]
      Ind20,r                     -37.33123966 [mEh]     -23.42570655 [kcal/mol]     -98.01315622 [kJ/mol]
      Ind22                        -3.66252408 [mEh]      -2.29826856 [kcal/mol]      -9.61595566 [kJ/mol]
      Exch-Ind20,r                 18.84190427 [mEh]      11.82347343 [kcal/mol]      49.46941284 [kJ/mol]
      Exch-Ind22                    1.84855710 [mEh]       1.15998709 [kcal/mol]       4.85338600 [kJ/mol]
      delta HF,r (2)               -2.03420560 [mEh]      -1.27648329 [kcal/mol]      -5.34080607 [kJ/mol]

    Dispersion                     -1.05162123 [mEh]      -0.65990229 [kcal/mol]      -2.76103116 [kJ/mol]
      Disp20                       -1.02590692 [mEh]      -0.64376631 [kcal/mol]      -2.69351826 [kJ/mol]
      Disp21                       -0.05876538 [mEh]      -0.03687583 [kcal/mol]      -0.15428849 [kJ/mol]
      Disp22 (SDQ)                 -0.02186786 [mEh]      -0.01372229 [kcal/mol]      -0.05741405 [kJ/mol]
      Disp22 (T)                   -0.05557537 [mEh]      -0.03487407 [kcal/mol]      -0.14591311 [kJ/mol]
      Est. Disp22 (T)              -0.07056460 [mEh]      -0.04427995 [kcal/mol]      -0.18526732 [kJ/mol]
      Exch-Disp20                   0.12548353 [mEh]       0.07874210 [kcal/mol]       0.32945696 [kJ/mol]

  Total HF                        -39.27834752 [mEh]     -24.64753518 [kcal/mol]    -103.12528720 [kJ/mol]
  Total SAPT0                     -40.17877091 [mEh]     -25.21255939 [kcal/mol]    -105.48934850 [kJ/mol]
  Total SAPT2                     -38.28394271 [mEh]     -24.02353674 [kcal/mol]    -100.51447773 [kJ/mol]
  Total SAPT2+                    -38.43514054 [mEh]     -24.11841482 [kcal/mol]    -100.91144760 [kJ/mol]

  Special recipe for scaled SAPT0 (see Manual):
    Electrostatics sSAPT0         -43.19711147 [mEh]     -27.10659669 [kcal/mol]    -113.41400054 [kJ/mol]
    Exchange sSAPT0                24.44230495 [mEh]      15.33777791 [kcal/mol]      64.17326280 [kJ/mol]
    Induction sSAPT0              -20.16384949 [mEh]     -12.65300658 [kcal/mol]     -52.94017953 [kJ/mol]
    Dispersion sSAPT0              -0.89802792 [mEh]      -0.56352103 [kcal/mol]      -2.35777198 [kJ/mol]
  Total sSAPT0                    -39.81668393 [mEh]     -24.98534638 [kcal/mol]    -104.53868925 [kJ/mol]
  --------------------------------------------------------------------------------------------------------

*** Psi4 exiting successfully. Buy a developer a beer!
