                               Psi4 1.9 release

  ==> Input File <==

--------------------------------------------------------------------------
MEMORY 60 GB

molecule dimer {
0 1
O      0.000000     0.000000     0.000000
H     -0.476350    -0.129007     0.825062
H      0.182313    -0.889565    -0.315775
--
1 1
Na     2.158940     0.000000     0.000000

units ang
no_reorient
no_com
symmetry c1
}

set {
basis        aug-cc-pVTZ
scf_type     df
}

energy("sapt2+")
--------------------------------------------------------------------------

  //              Dimer HF             //
    Molecular point group: c1
  Charge       = 1
  Multiplicity = 1
  Basis Set: AUG-CC-PVTZ
    Blend: AUG-CC-PVTZ
  Basis Set: (AUG-CC-PVTZ AUX)
    Blend: AUG-CC-PVTZ-JKFIT + DEF2-UNIVERSAL-JKFIT
  @DF-RHF Final Energy:  -237.75459999945352
    Total Energy =                       -237.7545999994535180
 Dipole X            :        -40.7608409           44.3222091            3.5613682
 Dipole Y            :          1.2306595           -1.9248221           -0.6941626
 Dipole Z            :         -0.5894601            0.9624129            0.3729529
 Magnitude           :                                                    3.6475059
  //            Monomer A HF           //
    Molecular point group: c1
  Multiplicity = 1
  Basis Set: AUG-CC-PVTZ
    Blend: AUG-CC-PVTZ
  Basis Set: (AUG-CC-PVTZ AUX)
    Blend: AUG-CC-PVTZ-JKFIT + DEF2-UNIVERSAL-JKFIT
  @DF-RHF Final Energy:   -76.06037855795431
    Total Energy =                        -76.0603785579543086
  //            Monomer B HF           //
    Molecular point group: c1

    Geometry (in Angstrom), charge = 1, multiplicity = 1:

       Center              X                  Y                   Z               Mass
    ------------   -----------------  -----------------  -----------------  -----------------
      Gh(O)           0.000000000000     0.000000000000     0.000000000000    15.994914619570
      Gh(H)          -0.476350000000    -0.129007000000     0.825062000000     1.007825032230
      Gh(H)           0.182313000000    -0.889565000000    -0.315775000000     1.007825032230
         NA           2.158940000000     0.000000000000     0.000000000000    22.989769282000

  Charge       = 1
  Multiplicity = 1
  Basis Set: AUG-CC-PVTZ
    Blend: AUG-CC-PVTZ
  Basis Set: (AUG-CC-PVTZ AUX)
    Blend: AUG-CC-PVTZ-JKFIT + DEF2-UNIVERSAL-JKFIT

    Orbital Energies [Eh]
    ---------------------

    Doubly Occupied:

       1A    -40.762692     2A     -3.074852     3A     -1.798146
       4A     -1.798032     5A     -1.798006

  @DF-RHF Final Energy:  -161.67604513194507

   => Energetics <=

    Nuclear Repulsion Energy =              0.0000000000000000
    One-Electron Energy =                -224.8886345702648271
    Two-Electron Energy =                  63.2125894383197604
    Total Energy =                       -161.6760451319450738
 Dipole X            :        -40.7987033           44.8778585            4.0791552
 Dipole Y            :         -0.0001142            0.0000000           -0.0001142
 Dipole Z            :          0.0000124            0.0000000            0.0000124
 Magnitude           :                                                    4.0791552

    SAPT Results
  --------------------------------------------------------------------------------------------------------
    Electrostatics                -30.07386780 [mEh]     -18.87163696 [kcal/mol]     -78.95892903 [kJ/mol]
      Elst10,r                    -29.86270707 [mEh]     -18.73913160 [kcal/mol]     -78.40452662 [kJ/mol]
      Elst12,r                     -0.21116073 [mEh]      -0.13250536 [kcal/mol]      -0.55440241 [kJ/mol]

    Exchange                       23.57273787 [mEh]      14.79211634 [kcal/mol]      61.89021476 [kJ/mol]
      Exch10                       21.19399366 [mEh]      13.29943181 [kcal/mol]      55.64482270 [kJ/mol]
      Exch10(S^2)                  21.07099145 [mEh]      13.22224676 [kcal/mol]      55.32188044 [kJ/mol]
      Exch11(S^2)                  -0.22109772 [mEh]      -0.13874091 [kcal/mol]      -0.58049199 [kJ/mol]
      Exch12(S^2)                   2.59984193 [mEh]       1.63142544 [kcal/mol]       6.82588405 [kJ/mol]

    Induction                     -11.17340376 [mEh]      -7.01141672 [kcal/mol]     -29.33576754 [kJ/mol]
      Ind20,r                     -34.73230955 [mEh]     -21.79485329 [kcal/mol]     -91.18966617 [kJ/mol]
      Ind22                        -5.08584142 [mEh]      -3.19141367 [kcal/mol]     -13.35287481 [kJ/mol]
      Exch-Ind20,r                 23.35614951 [mEh]      14.65620509 [kcal/mol]      61.32156209 [kJ/mol]
      Exch-Ind22                    3.42003380 [mEh]       2.14610361 [kcal/mol]       8.97929750 [kJ/mol]
      delta HF,r (2)                1.86856390 [mEh]       1.17254155 [kcal/mol]       4.90591384 [kJ/mol]

    Dispersion                     -0.96856267 [mEh]      -0.60778225 [kcal/mol]      -2.54296094 [kJ/mol]
      Disp20                       -1.00044304 [mEh]      -0.62778748 [kcal/mol]      -2.62666283 [kJ/mol]
      Disp21                       -0.04159617 [mEh]      -0.02610199 [kcal/mol]      -0.10921073 [kJ/mol]
      Disp22 (SDQ)                 -0.05865927 [mEh]      -0.03680925 [kcal/mol]      -0.15400988 [kJ/mol]
      Disp22 (T)                   -0.07111398 [mEh]      -0.04462469 [kcal/mol]      -0.18670972 [kJ/mol]
      Est. Disp22 (T)              -0.09182840 [mEh]      -0.05762319 [kcal/mol]      -0.24109544 [kJ/mol]
      Exch-Disp20                   0.22396421 [mEh]       0.14053966 [kcal/mol]       0.58801794 [kJ/mol]

  Total HF                        -18.17630955 [mEh]     -11.40580644 [kcal/mol]     -47.72189416 [kJ/mol]
  Total SAPT0                     -18.95278838 [mEh]     -11.89305427 [kcal/mol]     -49.76053905 [kJ/mol]
  Total SAPT2                     -18.45101252 [mEh]     -11.57818516 [kcal/mol]     -48.44312670 [kJ/mol]
  Total SAPT2+                    -18.64309636 [mEh]     -11.69871959 [kcal/mol]     -48.94744275 [kJ/mol]

  Special recipe for scaled SAPT0 (see Manual):
    Electrostatics sSAPT0         -29.86270707 [mEh]     -18.73913160 [kcal/mol]     -78.40452662 [kJ/mol]
    Exchange sSAPT0                21.19399366 [mEh]      13.29943181 [kcal/mol]      55.64482270 [kJ/mol]
    Induction sSAPT0               -9.09617824 [mEh]      -5.70793802 [kcal/mol]     -23.88201268 [kJ/mol]
    Dispersion sSAPT0              -0.77253371 [mEh]      -0.48477222 [kcal/mol]      -2.02828697 [kJ/mol]
  Total sSAPT0                    -18.53742536 [mEh]     -11.63241003 [kcal/mol]     -48.67000358 [kJ/mol]
  --------------------------------------------------------------------------------------------------------

*** Psi4 exiting successfully. Buy a developer a beer!
