                               Psi4 1.9 release

  ==> Input File <==

--------------------------------------------------------------------------
MEMORY 60 GB

molecule dimer {
0 1
O      0.000000     0.000000     0.000000
H     -0.476813     0.121965     0.825864
H      0.060983    -0.953626    -0.105625
--
1 1
Na     2.158940     0.000000     0.000000

units ang
no_reorient
no_com
symmetry c1
}

set {
basis        aug-cc-pVTZ
scf_type     df
}

energy("sapt2+")
--------------------------------------------------------------------------

  //              Dimer HF             //
    Molecular point group: c1
  Charge       = 1
  Multiplicity = 1
  Basis Set: AUG-CC-PVTZ
    Blend: AUG-CC-PVTZ
  Basis Set: (AUG-CC-PVTZ AUX)
    Blend: AUG-CC-PVTZ-JKFIT + DEF2-UNIVERSAL-JKFIT
  @DF-RHF Final Energy:  -237.75928511401102
    Total Energy =                       -237.7592851140110213
 Dipole X            :        -40.6106231           44.0920537            3.4814306
 Dipole Y            :          1.0045367           -1.5716115           -0.5670749
 Dipole Z            :         -0.8469388            1.3610545            0.5141156
 Magnitude           :                                                    3.5645825
  //            Monomer A HF           //
    Molecular point group: c1
  Multiplicity = 1
  Basis Set: AUG-CC-PVTZ
    Blend: AUG-CC-PVTZ
  Basis Set: (AUG-CC-PVTZ AUX)
    Blend: AUG-CC-PVTZ-JKFIT + DEF2-UNIVERSAL-JKFIT
  @DF-RHF Final Energy:   -76.06037831316611
    Total Energy =                        -76.0603783131660975
  //            Monomer B HF           //
    Molecular point group: c1

    Geometry (in Angstrom), charge = 1, multiplicity = 1:

       Center              X                  Y                   Z               Mass
    ------------   -----------------  -----------------  -----------------  -----------------
      Gh(O)           0.000000000000     0.000000000000     0.000000000000    15.994914619570
      Gh(H)          -0.476813000000     0.121965000000     0.825864000000     1.007825032230
      Gh(H)           0.060983000000    -0.953626000000    -0.105625000000     1.007825032230
         NA           2.158940000000     0.000000000000     0.000000000000    22.989769282000

  Charge       = 1
  Multiplicity = 1
  Basis Set: AUG-CC-PVTZ
    Blend: AUG-CC-PVTZ
  Basis Set: (AUG-CC-PVTZ AUX)
    Blend: AUG-CC-PVTZ-JKFIT + DEF2-UNIVERSAL-JKFIT

    Orbital Energies [Eh]
    ---------------------

    Doubly Occupied:

       1A    -40.762650     2A     -3.074838     3A     -1.798139
       4A     -1.798017     5A     -1.797991

  @DF-RHF Final Energy:  -161.67604455088474

   => Energetics <=

    Nuclear Repulsion Energy =              0.0000000000000000
    One-Electron Energy =                -224.8888187955820115
    Two-Electron Energy =                  63.2127742446972718
    Total Energy =                       -161.6760445508847397
 Dipole X            :        -40.7987032           44.8778585            4.0791553
 Dipole Y            :         -0.0000909            0.0000000           -0.0000909
 Dipole Z            :          0.0000465            0.0000000            0.0000465
 Magnitude           :                                                    4.0791553

    SAPT Results
  --------------------------------------------------------------------------------------------------------
    Electrostatics                -34.31294703 [mEh]     -21.53169934 [kcal/mol]     -90.08863002 [kJ/mol]
      Elst10,r                    -34.39764536 [mEh]     -21.58484834 [kcal/mol]     -90.31100546 [kJ/mol]
      Elst12,r                      0.08469833 [mEh]       0.05314900 [kcal/mol]       0.22237543 [kJ/mol]

    Exchange                       23.23937287 [mEh]      14.58292664 [kcal/mol]      61.01496506 [kJ/mol]
      Exch10                       20.95461528 [mEh]      13.14921961 [kcal/mol]      55.01633484 [kJ/mol]
      Exch10(S^2)                  20.83272592 [mEh]      13.07273288 [kcal/mol]      54.69631437 [kJ/mol]
      Exch11(S^2)                  -0.20532728 [mEh]      -0.12884481 [kcal/mol]      -0.53908671 [kJ/mol]
      Exch12(S^2)                   2.49008487 [mEh]       1.56255184 [kcal/mol]       6.53771692 [kJ/mol]

    Induction                     -11.02926893 [mEh]      -6.92097074 [kcal/mol]     -28.95734159 [kJ/mol]
      Ind20,r                     -34.43071784 [mEh]     -21.60560164 [kcal/mol]     -90.39783724 [kJ/mol]
      Ind22                        -4.88962177 [mEh]      -3.06828398 [kcal/mol]     -12.83770018 [kJ/mol]
      Exch-Ind20,r                 23.09341055 [mEh]      14.49133390 [kcal/mol]      60.63174104 [kJ/mol]
      Exch-Ind22                    3.27957272 [mEh]       2.05796295 [kcal/mol]       8.61051699 [kJ/mol]
      delta HF,r (2)                1.91808741 [mEh]       1.20361802 [kcal/mol]       5.03593781 [kJ/mol]

    Dispersion                     -0.93990113 [mEh]      -0.58979686 [kcal/mol]      -2.46771007 [kJ/mol]
      Disp20                       -0.97367130 [mEh]      -0.61098796 [kcal/mol]      -2.55637364 [kJ/mol]
      Disp21                       -0.03940711 [mEh]      -0.02472834 [kcal/mol]      -0.10346336 [kJ/mol]
      Disp22 (SDQ)                 -0.05727043 [mEh]      -0.03593773 [kcal/mol]      -0.15036348 [kJ/mol]
      Disp22 (T)                   -0.06879857 [mEh]      -0.04317175 [kcal/mol]      -0.18063061 [kJ/mol]
      Est. Disp22 (T)              -0.08894091 [mEh]      -0.05581126 [kcal/mol]      -0.23351432 [kJ/mol]
      Exch-Disp20                   0.21938861 [mEh]       0.13766843 [kcal/mol]       0.57600473 [kJ/mol]

  Total HF                        -22.86224996 [mEh]     -14.34627844 [kcal/mol]     -60.02482900 [kJ/mol]
  Total SAPT0                     -23.61653264 [mEh]     -14.81959797 [kcal/mol]     -62.00519791 [kJ/mol]
  Total SAPT2                     -22.85712578 [mEh]     -14.34306297 [kcal/mol]     -60.01137547 [kJ/mol]
  Total SAPT2+                    -23.04274422 [mEh]     -14.45954030 [kcal/mol]     -60.49871663 [kJ/mol]

  Special recipe for scaled SAPT0 (see Manual):
    Electrostatics sSAPT0         -34.39764536 [mEh]     -21.58484834 [kcal/mol]     -90.31100546 [kJ/mol]
    Exchange sSAPT0                20.95461528 [mEh]      13.14921961 [kcal/mol]      55.01633484 [kJ/mol]
    Induction sSAPT0               -9.01149469 [mEh]      -5.65479829 [kcal/mol]     -23.65967605 [kJ/mol]
    Dispersion sSAPT0              -0.75040927 [mEh]      -0.47088893 [kcal/mol]      -1.97019928 [kJ/mol]
  Total sSAPT0                    -23.20493404 [mEh]     -14.56131595 [kcal/mol]     -60.92454593 [kJ/mol]
  --------------------------------------------------------------------------------------------------------

*** Psi4 exiting successfully. Buy a developer a beer!
