                               Psi4 1.9 release

  ==> Input File <==

--------------------------------------------------------------------------
MEMORY 60 GB

molecule dimer {
0 1
O      0.000000     0.000000     0.000000
H     -0.185594     0.886847     0.321458
H     -0.382441    -0.582438     0.662407
--
1 1
Na     2.158940     0.000000     0.000000

units ang
no_reorient
no_com
symmetry c1
}

set {
basis        aug-cc-pVTZ
scf_type     df
}

energy("sapt2+")
--------------------------------------------------------------------------

  //              Dimer HF             //
    Molecular point group: c1
  Charge       = 1
  Multiplicity = 1
  Basis Set: AUG-CC-PVTZ
    Blend: AUG-CC-PVTZ
  Basis Set: (AUG-CC-PVTZ AUX)
    Blend: AUG-CC-PVTZ-JKFIT + DEF2-UNIVERSAL-JKFIT
  @DF-RHF Final Energy:  -237.76489488687548
    Total Energy =                       -237.7648948868754815
 Dipole X            :        -40.4232568           43.8044280            3.3811712
 Dipole Y            :         -0.3672769            0.5752496            0.2079728
 Dipole Z            :         -1.1672235            1.8592354            0.6920118
 Magnitude           :                                                    3.4575210
  //            Monomer A HF           //
    Molecular point group: c1
  Multiplicity = 1
  Basis Set: AUG-CC-PVTZ
    Blend: AUG-CC-PVTZ
  Basis Set: (AUG-CC-PVTZ AUX)
    Blend: AUG-CC-PVTZ-JKFIT + DEF2-UNIVERSAL-JKFIT
  @DF-RHF Final Energy:   -76.06037887898515
    Total Energy =                        -76.0603788789851478
  //            Monomer B HF           //
    Molecular point group: c1

    Geometry (in Angstrom), charge = 1, multiplicity = 1:

       Center              X                  Y                   Z               Mass
    ------------   -----------------  -----------------  -----------------  -----------------
      Gh(O)           0.000000000000     0.000000000000     0.000000000000    15.994914619570
      Gh(H)          -0.185594000000     0.886847000000     0.321458000000     1.007825032230
      Gh(H)          -0.382441000000    -0.582438000000     0.662407000000     1.007825032230
         NA           2.158940000000     0.000000000000     0.000000000000    22.989769282000

  Charge       = 1
  Multiplicity = 1
  Basis Set: AUG-CC-PVTZ
    Blend: AUG-CC-PVTZ
  Basis Set: (AUG-CC-PVTZ AUX)
    Blend: AUG-CC-PVTZ-JKFIT + DEF2-UNIVERSAL-JKFIT

    Orbital Energies [Eh]
    ---------------------

    Doubly Occupied:

       1A    -40.762567     2A     -3.074808     3A     -1.798120
       4A     -1.797988     5A     -1.797961

  @DF-RHF Final Energy:  -161.67604485347505

   => Energetics <=

    Nuclear Repulsion Energy =              0.0000000000000000
    One-Electron Energy =                -224.8892016346602247
    Two-Electron Energy =                  63.2131567811851980
    Total Energy =                       -161.6760448534750196
 Dipole X            :        -40.7986857           44.8778585            4.0791728
 Dipole Y            :          0.0000346            0.0000000            0.0000346
 Dipole Z            :          0.0000811            0.0000000            0.0000811
 Magnitude           :                                                    4.0791728

    SAPT Results
  --------------------------------------------------------------------------------------------------------
    Electrostatics                -39.75068715 [mEh]     -24.94393278 [kcal/mol]    -104.36541474 [kJ/mol]
      Elst10,r                    -40.18979541 [mEh]     -25.21947737 [kcal/mol]    -105.51829331 [kJ/mol]
      Elst12,r                      0.43910826 [mEh]       0.27554459 [kcal/mol]       1.15287858 [kJ/mol]

    Exchange                       23.26132418 [mEh]      14.59670129 [kcal/mol]      61.07259822 [kJ/mol]
      Exch10                       21.06958756 [mEh]      13.22136580 [kcal/mol]      55.31819451 [kJ/mol]
      Exch10(S^2)                  20.94437817 [mEh]      13.14279572 [kcal/mol]      54.98945730 [kJ/mol]
      Exch11(S^2)                  -0.19015710 [mEh]      -0.11932538 [kcal/mol]      -0.49925740 [kJ/mol]
      Exch12(S^2)                   2.38189372 [mEh]       1.49466088 [kcal/mol]       6.25366111 [kJ/mol]

    Induction                     -10.89705195 [mEh]      -6.83800334 [kcal/mol]     -28.61020597 [kJ/mol]
      Ind20,r                     -34.59016982 [mEh]     -21.70565926 [kcal/mol]     -90.81647835 [kJ/mol]
      Ind22                        -4.70665846 [mEh]      -2.95347277 [kcal/mol]     -12.35733009 [kJ/mol]
      Exch-Ind20,r                 23.22753357 [mEh]      14.57549736 [kcal/mol]      60.98388098 [kJ/mol]
      Exch-Ind22                    3.16055307 [mEh]       1.98327699 [kcal/mol]       8.29803094 [kJ/mol]
      delta HF,r (2)                2.01168969 [mEh]       1.26235434 [kcal/mol]       5.28169056 [kJ/mol]

    Dispersion                     -0.91290557 [mEh]      -0.57285689 [kcal/mol]      -2.39683325 [kJ/mol]
      Disp20                       -0.95000562 [mEh]      -0.59613753 [kcal/mol]      -2.49423941 [kJ/mol]
      Disp21                       -0.03792337 [mEh]      -0.02379727 [kcal/mol]      -0.09956780 [kJ/mol]
      Disp22 (SDQ)                 -0.05628048 [mEh]      -0.03531653 [kcal/mol]      -0.14776437 [kJ/mol]
      Disp22 (T)                   -0.06707527 [mEh]      -0.04209037 [kcal/mol]      -0.17610610 [kJ/mol]
      Est. Disp22 (T)              -0.08689409 [mEh]      -0.05452687 [kcal/mol]      -0.22814041 [kJ/mol]
      Exch-Disp20                   0.21819799 [mEh]       0.13692131 [kcal/mol]       0.57287875 [kJ/mol]

  Total HF                        -28.47115442 [mEh]     -17.86591912 [kcal/mol]     -74.75100562 [kJ/mol]
  Total SAPT0                     -29.20296204 [mEh]     -18.32513535 [kcal/mol]     -76.67236628 [kJ/mol]
  Total SAPT2                     -28.11822256 [mEh]     -17.64445104 [kcal/mol]     -73.82438315 [kJ/mol]
  Total SAPT2+                    -28.29932050 [mEh]     -17.75809171 [kcal/mol]     -74.29985573 [kJ/mol]

  Special recipe for scaled SAPT0 (see Manual):
    Electrostatics sSAPT0         -40.18979541 [mEh]     -25.21947737 [kcal/mol]    -105.51829331 [kJ/mol]
    Exchange sSAPT0                21.06958756 [mEh]      13.22136580 [kcal/mol]      55.31819451 [kJ/mol]
    Induction sSAPT0               -8.93187568 [mEh]      -5.60483661 [kcal/mol]     -23.45063638 [kJ/mol]
    Dispersion sSAPT0              -0.72787090 [mEh]      -0.45674589 [kcal/mol]      -1.91102479 [kJ/mol]
  Total sSAPT0                    -28.77995444 [mEh]     -18.05969407 [kcal/mol]     -75.56175997 [kJ/mol]
  --------------------------------------------------------------------------------------------------------

*** Psi4 exiting successfully. Buy a developer a beer!
