                               Psi4 1.9 release

  ==> Input File <==

--------------------------------------------------------------------------
MEMORY 60 GB

molecule dimer {
0 1
O      0.000000     0.000000     0.000000
H     -0.294037     0.760558     0.509286
H     -0.294037    -0.760558     0.509286
--
1 1
Na     2.158940     0.000000     0.000000

units ang
no_reorient
no_com
symmetry c1
}

set {
basis        aug-cc-pVTZ
scf_type     df
}

energy("sapt2+")
--------------------------------------------------------------------------

  //              Dimer HF             //
    Molecular point group: c1
  Charge       = 1
  Multiplicity = 1
  Basis Set: AUG-CC-PVTZ
    Blend: AUG-CC-PVTZ
  Basis Set: (AUG-CC-PVTZ AUX)
    Blend: AUG-CC-PVTZ-JKFIT + DEF2-UNIVERSAL-JKFIT
  @DF-RHF Final Energy:  -237.76561367648574
    Total Energy =                       -237.7656136764857706
 Dipole X            :        -40.3986405           43.7665597            3.3679192
 Dipole Y            :          0.0000000            0.0000000            0.0000000
 Dipole Z            :         -1.2092516            1.9248221            0.7155706
 Magnitude           :                                                    3.4430976
  //            Monomer A HF           //
    Molecular point group: c1
  Multiplicity = 1
  Basis Set: AUG-CC-PVTZ
    Blend: AUG-CC-PVTZ
  Basis Set: (AUG-CC-PVTZ AUX)
    Blend: AUG-CC-PVTZ-JKFIT + DEF2-UNIVERSAL-JKFIT
  @DF-RHF Final Energy:   -76.06037899201493
    Total Energy =                        -76.0603789920149325
  //            Monomer B HF           //
    Molecular point group: c1

    Geometry (in Angstrom), charge = 1, multiplicity = 1:

       Center              X                  Y                   Z               Mass
    ------------   -----------------  -----------------  -----------------  -----------------
      Gh(O)           0.000000000000     0.000000000000     0.000000000000    15.994914619570
      Gh(H)          -0.294037000000     0.760558000000     0.509286000000     1.007825032230
      Gh(H)          -0.294037000000    -0.760558000000     0.509286000000     1.007825032230
         NA           2.158940000000     0.000000000000     0.000000000000    22.989769282000

  Charge       = 1
  Multiplicity = 1
  Basis Set: AUG-CC-PVTZ
    Blend: AUG-CC-PVTZ
  Basis Set: (AUG-CC-PVTZ AUX)
    Blend: AUG-CC-PVTZ-JKFIT + DEF2-UNIVERSAL-JKFIT

    Orbital Energies [Eh]
    ---------------------

    Doubly Occupied:

       1A    -40.762560     2A     -3.074806     3A     -1.798118
       4A     -1.797985     5A     -1.797959

  @DF-RHF Final Energy:  -161.67604499466981

   => Energetics <=

    Nuclear Repulsion Energy =              0.0000000000000000
    One-Electron Energy =                -224.8892349783224347
    Two-Electron Energy =                  63.2131899836526259
    Total Energy =                       -161.6760449946698088
 Dipole X            :        -40.7986791           44.8778585            4.0791794
 Dipole Y            :         -0.0000000            0.0000000           -0.0000000
 Dipole Z            :          0.0000856            0.0000000            0.0000856
 Magnitude           :                                                    4.0791794

    SAPT Results
  --------------------------------------------------------------------------------------------------------
    Electrostatics                -40.47597713 [mEh]     -25.39905911 [kcal/mol]    -106.26966331 [kJ/mol]
      Elst10,r                    -40.96100821 [mEh]     -25.70342071 [kcal/mol]    -107.54311223 [kJ/mol]
      Elst12,r                      0.48503108 [mEh]       0.30436160 [kcal/mol]       1.27344892 [kJ/mol]

    Exchange                       23.29763079 [mEh]      14.61948404 [kcal/mol]      61.16792121 [kJ/mol]
      Exch10                       21.11669203 [mEh]      13.25092430 [kcal/mol]      55.44186729 [kJ/mol]
      Exch10(S^2)                  20.99067629 [mEh]      13.17184824 [kcal/mol]      55.11101302 [kJ/mol]
      Exch11(S^2)                  -0.18850406 [mEh]      -0.11828808 [kcal/mol]      -0.49491735 [kJ/mol]
      Exch12(S^2)                   2.36944282 [mEh]       1.48684782 [kcal/mol]       6.22097126 [kJ/mol]

    Induction                     -10.88345202 [mEh]      -6.82946925 [kcal/mol]     -28.57449934 [kJ/mol]
      Ind20,r                     -34.65150626 [mEh]     -21.74414846 [kcal/mol]     -90.97751715 [kJ/mol]
      Ind22                        -4.68669946 [mEh]      -2.94094831 [kcal/mol]     -12.30492773 [kJ/mol]
      Exch-Ind20,r                 23.27959440 [mEh]      14.60816603 [kcal/mol]      61.12056667 [kJ/mol]
      Exch-Ind22                    3.14862106 [mEh]       1.97578955 [kcal/mol]       8.26670346 [kJ/mol]
      delta HF,r (2)                2.02653824 [mEh]       1.27167194 [kcal/mol]       5.32067541 [kJ/mol]

    Dispersion                     -0.90989786 [mEh]      -0.57096953 [kcal/mol]      -2.38893651 [kJ/mol]
      Disp20                       -0.94749928 [mEh]      -0.59456478 [kcal/mol]      -2.48765902 [kJ/mol]
      Disp21                       -0.03781997 [mEh]      -0.02373239 [kcal/mol]      -0.09929633 [kJ/mol]
      Disp22 (SDQ)                 -0.05619677 [mEh]      -0.03526400 [kcal/mol]      -0.14754459 [kJ/mol]
      Disp22 (T)                   -0.06692488 [mEh]      -0.04199600 [kcal/mol]      -0.17571126 [kJ/mol]
      Est. Disp22 (T)              -0.08671502 [mEh]      -0.05441450 [kcal/mol]      -0.22767025 [kJ/mol]
      Exch-Disp20                   0.21833318 [mEh]       0.13700614 [kcal/mol]       0.57323368 [kJ/mol]

  Total HF                        -29.18968980 [mEh]     -18.31680689 [kcal/mol]     -76.63752001 [kJ/mol]
  Total SAPT0                     -29.91885591 [mEh]     -18.77436553 [kcal/mol]     -78.55194536 [kJ/mol]
  Total SAPT2                     -28.79096447 [mEh]     -18.06660296 [kcal/mol]     -75.59066679 [kJ/mol]
  Total SAPT2+                    -28.97169622 [mEh]     -18.18001385 [kcal/mol]     -76.06517796 [kJ/mol]

  Special recipe for scaled SAPT0 (see Manual):
    Electrostatics sSAPT0         -40.96100821 [mEh]     -25.70342071 [kcal/mol]    -107.54311223 [kJ/mol]
    Exchange sSAPT0                21.11669203 [mEh]      13.25092430 [kcal/mol]      55.44186729 [kJ/mol]
    Induction sSAPT0               -8.92358034 [mEh]      -5.59963120 [kcal/mol]     -23.42885696 [kJ/mol]
    Dispersion sSAPT0              -0.72521022 [mEh]      -0.45507628 [kcal/mol]      -1.90403916 [kJ/mol]
  Total sSAPT0                    -29.49310674 [mEh]     -18.50720389 [kcal/mol]     -77.43414107 [kJ/mol]
  --------------------------------------------------------------------------------------------------------

*** Psi4 exiting successfully. Buy a developer a beer!
