                               Psi4 1.9 release

  ==> Input File <==

--------------------------------------------------------------------------
MEMORY 60 GB

molecule dimer {
0 1
O      0.000000     0.000000     0.000000
H     -0.444783     0.364626     0.770386
H     -0.064504    -0.952699     0.111723
--
1 1
Na     2.158940     0.000000     0.000000

units ang
no_reorient
no_com
symmetry c1
}

set {
basis        aug-cc-pVTZ
scf_type     df
}

energy("sapt2+")
--------------------------------------------------------------------------

  //              Dimer HF             //
    Molecular point group: c1
  Charge       = 1
  Multiplicity = 1
  Basis Set: AUG-CC-PVTZ
    Blend: AUG-CC-PVTZ
  Basis Set: (AUG-CC-PVTZ AUX)
    Blend: AUG-CC-PVTZ-JKFIT + DEF2-UNIVERSAL-JKFIT
  @DF-RHF Final Energy:  -237.76276161086736
    Total Energy =                       -237.7627616108673578
 Dipole X            :        -40.4955004           43.9154456            3.4199451
 Dipole Y            :          0.7098836           -1.1112969           -0.4014133
 Dipole Z            :         -1.0438153            1.6669444            0.6231292
 Magnitude           :                                                    3.4993496
  //            Monomer A HF           //
    Molecular point group: c1
  Multiplicity = 1
  Basis Set: AUG-CC-PVTZ
    Blend: AUG-CC-PVTZ
  Basis Set: (AUG-CC-PVTZ AUX)
    Blend: AUG-CC-PVTZ-JKFIT + DEF2-UNIVERSAL-JKFIT
  @DF-RHF Final Energy:   -76.06037854216092
    Total Energy =                        -76.0603785421609189
  //            Monomer B HF           //
    Molecular point group: c1

    Geometry (in Angstrom), charge = 1, multiplicity = 1:

       Center              X                  Y                   Z               Mass
    ------------   -----------------  -----------------  -----------------  -----------------
      Gh(O)           0.000000000000     0.000000000000     0.000000000000    15.994914619570
      Gh(H)          -0.444783000000     0.364626000000     0.770386000000     1.007825032230
      Gh(H)          -0.064504000000    -0.952699000000     0.111723000000     1.007825032230
         NA           2.158940000000     0.000000000000     0.000000000000    22.989769282000

  Charge       = 1
  Multiplicity = 1
  Basis Set: AUG-CC-PVTZ
    Blend: AUG-CC-PVTZ
  Basis Set: (AUG-CC-PVTZ AUX)
    Blend: AUG-CC-PVTZ-JKFIT + DEF2-UNIVERSAL-JKFIT

    Orbital Energies [Eh]
    ---------------------

    Doubly Occupied:

       1A    -40.762597     2A     -3.074819     3A     -1.798127
       4A     -1.797998     5A     -1.797972

  @DF-RHF Final Energy:  -161.67604455991250

   => Energetics <=

    Nuclear Repulsion Energy =              0.0000000000000000
    One-Electron Energy =                -224.8890642482380997
    Two-Electron Energy =                  63.2130196883256019
    Total Energy =                       -161.6760445599124978
 Dipole X            :        -40.7986978           44.8778585            4.0791607
 Dipole Y            :         -0.0000640            0.0000000           -0.0000640
 Dipole Z            :          0.0000683            0.0000000            0.0000683
 Magnitude           :                                                    4.0791607

    SAPT Results
  --------------------------------------------------------------------------------------------------------
    Electrostatics                -37.63629326 [mEh]     -23.61713058 [kcal/mol]     -98.81407435 [kJ/mol]
      Elst10,r                    -37.94001776 [mEh]     -23.80772058 [kcal/mol]     -99.61150290 [kJ/mol]
      Elst12,r                      0.30372449 [mEh]       0.19059000 [kcal/mol]       0.79742855 [kJ/mol]

    Exchange                       23.19833629 [mEh]      14.55717580 [kcal/mol]      60.90722355 [kJ/mol]
      Exch10                       20.97325168 [mEh]      13.16091413 [kcal/mol]      55.06526470 [kJ/mol]
      Exch10(S^2)                  20.84991855 [mEh]      13.08352142 [kcal/mol]      54.74145362 [kJ/mol]
      Exch11(S^2)                  -0.19545444 [mEh]      -0.12264951 [kcal/mol]      -0.51316556 [kJ/mol]
      Exch12(S^2)                   2.42053905 [mEh]       1.51891119 [kcal/mol]       6.35512440 [kJ/mol]

    Induction                     -10.94185891 [mEh]      -6.86612013 [kcal/mol]     -28.72784661 [kJ/mol]
      Ind20,r                     -34.46205106 [mEh]     -21.62526352 [kcal/mol]     -90.48010259 [kJ/mol]
      Ind22                        -4.77020240 [mEh]      -2.99334720 [kcal/mol]     -12.52416467 [kJ/mol]
      Exch-Ind20,r                 23.11883753 [mEh]      14.50728957 [kcal/mol]      60.69849957 [kJ/mol]
      Exch-Ind22                    3.20008621 [mEh]       2.00808441 [kcal/mol]       8.40182518 [kJ/mol]
      delta HF,r (2)                1.97147081 [mEh]       1.23711661 [kcal/mol]       5.17609590 [kJ/mol]

    Dispersion                     -0.92234402 [mEh]      -0.57877961 [kcal/mol]      -2.42161388 [kJ/mol]
      Disp20                       -0.95805556 [mEh]      -0.60118894 [kcal/mol]      -2.51537452 [kJ/mol]
      Disp21                       -0.03834230 [mEh]      -0.02406015 [kcal/mol]      -0.10066769 [kJ/mol]
      Disp22 (SDQ)                 -0.05657908 [mEh]      -0.03550391 [kcal/mol]      -0.14854835 [kJ/mol]
      Disp22 (T)                   -0.06760510 [mEh]      -0.04242284 [kcal/mol]      -0.17749715 [kJ/mol]
      Est. Disp22 (T)              -0.08751746 [mEh]      -0.05491803 [kcal/mol]      -0.22977705 [kJ/mol]
      Exch-Disp20                   0.21815037 [mEh]       0.13689143 [kcal/mol]       0.57275373 [kJ/mol]

  Total HF                        -26.33850879 [mEh]     -16.52766379 [kcal/mol]     -69.15174531 [kJ/mol]
  Total SAPT0                     -27.07841398 [mEh]     -16.99196131 [kcal/mol]     -71.09436610 [kJ/mol]
  Total SAPT2                     -26.11972106 [mEh]     -16.39037242 [kcal/mol]     -68.57731821 [kJ/mol]
  Total SAPT2+                    -26.30215990 [mEh]     -16.50485452 [kcal/mol]     -69.05631129 [kJ/mol]

  Special recipe for scaled SAPT0 (see Manual):
    Electrostatics sSAPT0         -37.94001776 [mEh]     -23.80772058 [kcal/mol]     -99.61150290 [kJ/mol]
    Exchange sSAPT0                20.97325168 [mEh]      13.16091413 [kcal/mol]      55.06526470 [kJ/mol]
    Induction sSAPT0               -8.95904785 [mEh]      -5.62188740 [kcal/mol]     -23.52197688 [kJ/mol]
    Dispersion sSAPT0              -0.73601098 [mEh]      -0.46185386 [kcal/mol]      -1.93239655 [kJ/mol]
  Total sSAPT0                    -26.66182490 [mEh]     -16.73054771 [kcal/mol]     -70.00061163 [kJ/mol]
  --------------------------------------------------------------------------------------------------------

*** Psi4 exiting successfully. Buy a developer a beer!
