                               Psi4 1.9 release

  ==> Input File <==

--------------------------------------------------------------------------
MEMORY 60 GB

molecule dimer {
0 1
O      0.000000     0.000000     0.000000
H     -0.067130     0.951316     0.116273
H     -0.445497    -0.359385     0.771623
--
1 1
K      2.466222     0.000000     0.000000

units ang
no_reorient
no_com
symmetry c1
}

set {
basis        aug-cc-pVTZ
scf_type     df
}

energy("sapt2+")
--------------------------------------------------------------------------

  //              Dimer HF             //
    Molecular point group: c1
  Charge       = 1
  Multiplicity = 1
  Basis Set: AUG-CC-PVTZ
    Blend: AUG-CC-PVTZ
  Basis Set: (AUG-CC-PVTZ AUX)
    Blend: AUG-CC-PVTZ-JKFIT + DEF2-UNIVERSAL-JKFIT
  @DF-RHF Final Energy:  -675.09189178081419
    Total Energy =                       -675.0918917808141941
 Dipole X            :        -83.6101844           87.5804741            3.9702897
 Dipole Y            :         -0.7353564            1.1185875            0.3832311
 Dipole Z            :         -1.0650688            1.6778803            0.6128115
 Magnitude           :                                                    4.0355426
  //            Monomer A HF           //
    Molecular point group: c1
  Multiplicity = 1
  Basis Set: AUG-CC-PVTZ
    Blend: AUG-CC-PVTZ
  Basis Set: (AUG-CC-PVTZ AUX)
    Blend: AUG-CC-PVTZ-JKFIT + DEF2-UNIVERSAL-JKFIT
  @DF-RHF Final Energy:   -76.06034769926246
    Total Energy =                        -76.0603476992624792
  //            Monomer B HF           //
    Molecular point group: c1

    Geometry (in Angstrom), charge = 1, multiplicity = 1:

       Center              X                  Y                   Z               Mass
    ------------   -----------------  -----------------  -----------------  -----------------
      Gh(O)           0.000000000000     0.000000000000     0.000000000000    15.994914619570
      Gh(H)          -0.067130000000     0.951316000000     0.116273000000     1.007825032230
      Gh(H)          -0.445497000000    -0.359385000000     0.771623000000     1.007825032230
         K            2.466222000000     0.000000000000     0.000000000000    38.963706486400

  Charge       = 1
  Multiplicity = 1
  Basis Set: AUG-CC-PVTZ
    Blend: AUG-CC-PVTZ
  Basis Set: (AUG-CC-PVTZ AUX)
    Blend: AUG-CC-PVTZ-JKFIT + DEF2-UNIVERSAL-JKFIT

    Orbital Energies [Eh]
    ---------------------

    Doubly Occupied:

       1A   -133.753665     2A    -14.709126     3A    -11.739198
       4A    -11.739192     5A    -11.739192     6A     -1.964311
       7A     -1.170969     8A     -1.170899     9A     -1.170895

  @DF-RHF Final Energy:  -599.01750887112746

   => Energetics <=

    Nuclear Repulsion Energy =              0.0000000000000000
    One-Electron Energy =                -819.7201265309869314
    Two-Electron Energy =                 220.7026176598595271
    Total Energy =                       -599.0175088711273474
 Dipole X            :        -83.8891599           88.5491987            4.6600388
 Dipole Y            :          0.0000219            0.0000000            0.0000219
 Dipole Z            :          0.0000972            0.0000000            0.0000972
 Magnitude           :                                                    4.6600388

    SAPT Results
  --------------------------------------------------------------------------------------------------------
    Electrostatics                -32.49736665 [mEh]     -20.39240545 [kcal/mol]     -85.32182440 [kJ/mol]
      Elst10,r                    -31.82450021 [mEh]     -19.97017538 [kcal/mol]     -83.55521380 [kJ/mol]
      Elst12,r                     -0.67286644 [mEh]      -0.42223007 [kcal/mol]      -1.76661059 [kJ/mol]

    Exchange                       28.79807437 [mEh]      18.07106450 [kcal/mol]      75.60933385 [kJ/mol]
      Exch10                       26.01400326 [mEh]      16.32403350 [kcal/mol]      68.29975615 [kJ/mol]
      Exch10(S^2)                  25.70588148 [mEh]      16.13068416 [kcal/mol]      67.49078252 [kJ/mol]
      Exch11(S^2)                   0.04002479 [mEh]       0.02511593 [kcal/mol]       0.10508506 [kJ/mol]
      Exch12(S^2)                   2.74404633 [mEh]       1.72191507 [kcal/mol]       7.20449264 [kJ/mol]

    Induction                      -9.66454376 [mEh]      -6.06459277 [kcal/mol]     -25.37425615 [kJ/mol]
      Ind20,r                     -33.16130071 [mEh]     -20.80903036 [kcal/mol]     -87.06498302 [kJ/mol]
      Ind22                        -6.08361007 [mEh]      -3.81752296 [kcal/mol]     -15.97251605 [kJ/mol]
      Exch-Ind20,r                 25.31289414 [mEh]      15.88408088 [kcal/mol]      66.45899440 [kJ/mol]
      Exch-Ind22                    4.64377978 [mEh]       2.91401581 [kcal/mol]      12.19224214 [kJ/mol]
      delta HF,r (2)               -0.37630690 [mEh]      -0.23613614 [kcal/mol]      -0.98799362 [kJ/mol]

    Dispersion                     -3.78081388 [mEh]      -2.37249653 [kcal/mol]      -9.92652549 [kJ/mol]
      Disp20                       -4.60993560 [mEh]      -2.89277826 [kcal/mol]     -12.10338424 [kJ/mol]
      Disp21                        0.48843674 [mEh]       0.30649868 [kcal/mol]       1.28239047 [kJ/mol]
      Disp22 (SDQ)                 -0.03997170 [mEh]      -0.02508262 [kcal/mol]      -0.10494568 [kJ/mol]
      Disp22 (T)                   -0.42624972 [mEh]      -0.26747574 [kcal/mol]      -1.11911849 [kJ/mol]
      Est. Disp22 (T)              -0.48290198 [mEh]      -0.30302557 [kcal/mol]      -1.26785898 [kJ/mol]
      Exch-Disp20                   0.86355866 [mEh]       0.54189124 [kcal/mol]       2.26727295 [kJ/mol]

  Total HF                        -14.03521042 [mEh]      -8.80722751 [kcal/mol]     -36.84943989 [kJ/mol]
  Total SAPT0                     -17.78158736 [mEh]     -11.15811453 [kcal/mol]     -46.68555119 [kJ/mol]
  Total SAPT2                     -17.11021298 [mEh]     -10.73682074 [kcal/mol]     -44.92285799 [kJ/mol]
  Total SAPT2+                    -17.14464993 [mEh]     -10.75843025 [kcal/mol]     -45.01327218 [kJ/mol]

  Special recipe for scaled SAPT0 (see Manual):
    Electrostatics sSAPT0         -31.82450021 [mEh]     -19.97017538 [kcal/mol]     -83.55521380 [kJ/mol]
    Exchange sSAPT0                26.01400326 [mEh]      16.32403350 [kcal/mol]      68.29975615 [kJ/mol]
    Induction sSAPT0               -7.30352563 [mEh]      -4.58303152 [kcal/mol]     -19.17540389 [kJ/mol]
    Dispersion sSAPT0              -3.71495028 [mEh]      -2.33116649 [kcal/mol]      -9.75360061 [kJ/mol]
  Total sSAPT0                    -16.82897286 [mEh]     -10.56033990 [kcal/mol]     -44.18446216 [kJ/mol]
  --------------------------------------------------------------------------------------------------------

*** Psi4 exiting successfully. Buy a developer a beer!
