                               Psi4 1.9 release

  ==> Input File <==

--------------------------------------------------------------------------
MEMORY 60 GB

molecule dimer {
0 1
O      0.000000     0.000000     0.000000
H     -0.476825     0.116533     0.825885
H      0.058266    -0.953649    -0.100920
--
1 1
K      2.466222     0.000000     0.000000

units ang
no_reorient
no_com
symmetry c1
}

set {
basis        aug-cc-pVTZ
scf_type     df
}

energy("sapt2+")
--------------------------------------------------------------------------

  //              Dimer HF             //
    Molecular point group: c1
  Charge       = 1
  Multiplicity = 1
  Basis Set: AUG-CC-PVTZ
    Blend: AUG-CC-PVTZ
  Basis Set: (AUG-CC-PVTZ AUX)
    Blend: AUG-CC-PVTZ-JKFIT + DEF2-UNIVERSAL-JKFIT
  @DF-RHF Final Energy:  -675.08902973965428
    Total Energy =                       -675.0890297396542792
 Dipole X            :        -83.7214685           87.7582369            4.0367683
 Dipole Y            :          1.0397811           -1.5819200           -0.5421388
 Dipole Z            :         -0.8602988            1.3699853            0.5096865
 Magnitude           :                                                    4.1047769
  //            Monomer A HF           //
    Molecular point group: c1
  Multiplicity = 1
  Basis Set: AUG-CC-PVTZ
    Blend: AUG-CC-PVTZ
  Basis Set: (AUG-CC-PVTZ AUX)
    Blend: AUG-CC-PVTZ-JKFIT + DEF2-UNIVERSAL-JKFIT
  @DF-RHF Final Energy:   -76.06034728451419
    Total Energy =                        -76.0603472845141937
  //            Monomer B HF           //
    Molecular point group: c1

    Geometry (in Angstrom), charge = 1, multiplicity = 1:

       Center              X                  Y                   Z               Mass
    ------------   -----------------  -----------------  -----------------  -----------------
      Gh(O)           0.000000000000     0.000000000000     0.000000000000    15.994914619570
      Gh(H)          -0.476825000000     0.116533000000     0.825885000000     1.007825032230
      Gh(H)           0.058266000000    -0.953649000000    -0.100920000000     1.007825032230
         K            2.466222000000     0.000000000000     0.000000000000    38.963706486400

  Charge       = 1
  Multiplicity = 1
  Basis Set: AUG-CC-PVTZ
    Blend: AUG-CC-PVTZ
  Basis Set: (AUG-CC-PVTZ AUX)
    Blend: AUG-CC-PVTZ-JKFIT + DEF2-UNIVERSAL-JKFIT

    Orbital Energies [Eh]
    ---------------------

    Doubly Occupied:

       1A   -133.753663     2A    -14.709124     3A    -11.739197
       4A    -11.739190     5A    -11.739190     6A     -1.964309
       7A     -1.170968     8A     -1.170899     9A     -1.170894

  @DF-RHF Final Energy:  -599.01750893504277

   => Energetics <=

    Nuclear Repulsion Energy =              0.0000000000000000
    One-Electron Energy =                -819.7201512691613061
    Two-Electron Energy =                 220.7026423341185364
    Total Energy =                       -599.0175089350427697
 Dipole X            :        -83.8891622           88.5491987            4.6600365
 Dipole Y            :         -0.0000540            0.0000000           -0.0000540
 Dipole Z            :          0.0000846            0.0000000            0.0000846
 Magnitude           :                                                    4.6600365

    SAPT Results
  --------------------------------------------------------------------------------------------------------
    Electrostatics                -29.85648592 [mEh]     -18.73522777 [kcal/mol]     -78.38819299 [kJ/mol]
      Elst10,r                    -29.01537281 [mEh]     -18.20742132 [kcal/mol]     -76.17985082 [kJ/mol]
      Elst12,r                     -0.84111311 [mEh]      -0.52780645 [kcal/mol]      -2.20834217 [kJ/mol]

    Exchange                       28.93489211 [mEh]      18.15691892 [kcal/mol]      75.96854877 [kJ/mol]
      Exch10                       26.09421809 [mEh]      16.37436906 [kcal/mol]      68.51036015 [kJ/mol]
      Exch10(S^2)                  25.78797954 [mEh]      16.18220147 [kcal/mol]      67.70633094 [kJ/mol]
      Exch11(S^2)                   0.02673935 [mEh]       0.01677920 [kcal/mol]       0.07020416 [kJ/mol]
      Exch12(S^2)                   2.81393467 [mEh]       1.76577067 [kcal/mol]       7.38798446 [kJ/mol]

    Induction                      -9.72346918 [mEh]      -6.10156903 [kcal/mol]     -25.52896482 [kJ/mol]
      Ind20,r                     -33.16884837 [mEh]     -20.81376659 [kcal/mol]     -87.08479940 [kJ/mol]
      Ind22                        -6.23698364 [mEh]      -3.91376632 [kcal/mol]     -16.37519829 [kJ/mol]
      Exch-Ind20,r                 25.34538401 [mEh]      15.90446859 [kcal/mol]      66.54429656 [kJ/mol]
      Exch-Ind22                    4.76587983 [mEh]       2.99063475 [kcal/mol]      12.51281577 [kJ/mol]
      delta HF,r (2)               -0.42890102 [mEh]      -0.26913945 [kcal/mol]      -1.12607947 [kJ/mol]

    Dispersion                     -3.84787960 [mEh]      -2.41458091 [kcal/mol]     -10.10260651 [kJ/mol]
      Disp20                       -4.67674908 [mEh]      -2.93470435 [kcal/mol]     -12.27880301 [kJ/mol]
      Disp21                        0.49162698 [mEh]       0.30850059 [kcal/mol]       1.29076646 [kJ/mol]
      Disp22 (SDQ)                 -0.03952284 [mEh]      -0.02480096 [kcal/mol]      -0.10376720 [kJ/mol]
      Disp22 (T)                   -0.43467636 [mEh]      -0.27276353 [kcal/mol]      -1.14124261 [kJ/mol]
      Est. Disp22 (T)              -0.49154161 [mEh]      -0.30844701 [kcal/mol]      -1.29054231 [kJ/mol]
      Exch-Disp20                   0.86830694 [mEh]       0.54487083 [kcal/mol]       2.27973955 [kJ/mol]

  Total HF                        -11.17352010 [mEh]      -7.01148972 [kcal/mol]     -29.33607297 [kJ/mol]
  Total SAPT0                     -14.98196224 [mEh]      -9.40132324 [kcal/mol]     -39.33513643 [kJ/mol]
  Total SAPT2                     -14.45350513 [mEh]      -9.06971140 [kcal/mol]     -37.94767249 [kJ/mol]
  Total SAPT2+                    -14.49294260 [mEh]      -9.09445878 [kcal/mol]     -38.05121555 [kJ/mol]

  Special recipe for scaled SAPT0 (see Manual):
    Electrostatics sSAPT0         -29.01537281 [mEh]     -18.20742132 [kcal/mol]     -76.17985082 [kJ/mol]
    Exchange sSAPT0                26.09421809 [mEh]      16.37436906 [kcal/mol]      68.51036015 [kJ/mol]
    Induction sSAPT0               -7.33865234 [mEh]      -4.60507387 [kcal/mol]     -19.26762907 [kJ/mol]
    Dispersion sSAPT0              -3.77713926 [mEh]      -2.37019067 [kcal/mol]      -9.91687777 [kJ/mol]
  Total sSAPT0                    -14.03694633 [mEh]      -8.80831681 [kcal/mol]     -36.85399751 [kJ/mol]
  --------------------------------------------------------------------------------------------------------

*** Psi4 exiting successfully. Buy a developer a beer!
