                               Psi4 1.9 release

  ==> Input File <==

--------------------------------------------------------------------------
MEMORY 60 GB

molecule dimer {
0 1
O      0.000000     0.000000     0.000000
H     -0.475658    -0.134261     0.823863
H      0.179692    -0.890994    -0.311236
--
1 1
K      2.466222     0.000000     0.000000

units ang
no_reorient
no_com
symmetry c1
}

set {
basis        aug-cc-pVTZ
scf_type     df
}

energy("sapt2+")
--------------------------------------------------------------------------

  //              Dimer HF             //
    Molecular point group: c1
  Charge       = 1
  Multiplicity = 1
  Basis Set: AUG-CC-PVTZ
    Blend: AUG-CC-PVTZ
  Basis Set: (AUG-CC-PVTZ AUX)
    Blend: AUG-CC-PVTZ-JKFIT + DEF2-UNIVERSAL-JKFIT
  @DF-RHF Final Energy:  -675.08511192171829
    Total Energy =                       -675.0851119217182941
 Dipole X            :        -83.8667497           87.9899041            4.1231543
 Dipole Y            :          1.2724576           -1.9374512           -0.6649936
 Dipole Z            :         -0.5929875            0.9687246            0.3757372
 Magnitude           :                                                    4.1933038
  //            Monomer A HF           //
    Molecular point group: c1
  Multiplicity = 1
  Basis Set: AUG-CC-PVTZ
    Blend: AUG-CC-PVTZ
  Basis Set: (AUG-CC-PVTZ AUX)
    Blend: AUG-CC-PVTZ-JKFIT + DEF2-UNIVERSAL-JKFIT
  @DF-RHF Final Energy:   -76.06034705300632
    Total Energy =                        -76.0603470530063248
  //            Monomer B HF           //
    Molecular point group: c1

    Geometry (in Angstrom), charge = 1, multiplicity = 1:

       Center              X                  Y                   Z               Mass
    ------------   -----------------  -----------------  -----------------  -----------------
      Gh(O)           0.000000000000     0.000000000000     0.000000000000    15.994914619570
      Gh(H)          -0.475658000000    -0.134261000000     0.823863000000     1.007825032230
      Gh(H)           0.179692000000    -0.890994000000    -0.311236000000     1.007825032230
         K            2.466222000000     0.000000000000     0.000000000000    38.963706486400

  Charge       = 1
  Multiplicity = 1
  Basis Set: AUG-CC-PVTZ
    Blend: AUG-CC-PVTZ
  Basis Set: (AUG-CC-PVTZ AUX)
    Blend: AUG-CC-PVTZ-JKFIT + DEF2-UNIVERSAL-JKFIT

    Orbital Energies [Eh]
    ---------------------

    Doubly Occupied:

       1A   -133.753647     2A    -14.709112     3A    -11.739185
       4A    -11.739178     5A    -11.739178     6A     -1.964303
       7A     -1.170964     8A     -1.170895     9A     -1.170889

  @DF-RHF Final Energy:  -599.01750904296932

   => Energetics <=

    Nuclear Repulsion Energy =              0.0000000000000000
    One-Electron Energy =                -819.7203183932067532
    Two-Electron Energy =                 220.7028093502374873
    Total Energy =                       -599.0175090429693228
 Dipole X            :        -83.8891729           88.5491987            4.6600258
 Dipole Y            :         -0.0000941            0.0000000           -0.0000941
 Dipole Z            :          0.0000550            0.0000000            0.0000550
 Magnitude           :                                                    4.6600258

    SAPT Results
  --------------------------------------------------------------------------------------------------------
    Electrostatics                -26.52880924 [mEh]     -16.64707913 [kcal/mol]     -69.65137907 [kJ/mol]
      Elst10,r                    -25.45565908 [mEh]     -15.97366723 [kcal/mol]     -66.83382370 [kJ/mol]
      Elst12,r                     -1.07315017 [mEh]      -0.67341190 [kcal/mol]      -2.81755538 [kJ/mol]

    Exchange                       29.46297974 [mEh]      18.48829891 [kcal/mol]      77.35504265 [kJ/mol]
      Exch10                       26.52782167 [mEh]      16.64645942 [kcal/mol]      69.64878620 [kJ/mol]
      Exch10(S^2)                  26.21637531 [mEh]      16.45102388 [kcal/mol]      68.83108389 [kJ/mol]
      Exch11(S^2)                   0.01092477 [mEh]       0.00685540 [kcal/mol]       0.02868298 [kJ/mol]
      Exch12(S^2)                   2.92423330 [mEh]       1.83498410 [kcal/mol]       7.67757346 [kJ/mol]

    Induction                      -9.84485397 [mEh]      -6.17773913 [kcal/mol]     -25.84766053 [kJ/mol]
      Ind20,r                     -33.54156072 [mEh]     -21.04764712 [kcal/mol]     -88.06335554 [kJ/mol]
      Ind22                        -6.48899995 [mEh]      -4.07190894 [kcal/mol]     -17.03686701 [kJ/mol]
      Exch-Ind20,r                 25.70090099 [mEh]      16.12755886 [kcal/mol]      67.47770626 [kJ/mol]
      Exch-Ind22                    4.97213432 [mEh]       3.12006139 [kcal/mol]      13.05433685 [kJ/mol]
      delta HF,r (2)               -0.48732861 [mEh]      -0.30580332 [kcal/mol]      -1.27948109 [kJ/mol]

    Dispersion                     -3.95822374 [mEh]      -2.48382290 [kcal/mol]     -10.39231500 [kJ/mol]
      Disp20                       -4.79097539 [mEh]      -3.00638245 [kcal/mol]     -12.57870416 [kJ/mol]
      Disp21                        0.49491668 [mEh]       0.31056491 [kcal/mol]       1.29940357 [kJ/mol]
      Disp22 (SDQ)                 -0.03912064 [mEh]      -0.02454857 [kcal/mol]      -0.10271123 [kJ/mol]
      Disp22 (T)                   -0.44834222 [mEh]      -0.28133899 [kcal/mol]      -1.17712233 [kJ/mol]
      Est. Disp22 (T)              -0.50602288 [mEh]      -0.31753415 [kcal/mol]      -1.32856289 [kJ/mol]
      Exch-Disp20                   0.88297849 [mEh]       0.55407737 [kcal/mol]       2.31825970 [kJ/mol]

  Total HF                         -7.25582574 [mEh]      -4.55309939 [kcal/mol]     -19.05016786 [kJ/mol]
  Total SAPT0                     -11.16382264 [mEh]      -7.00540447 [kcal/mol]     -29.31061232 [kJ/mol]
  Total SAPT2                     -10.81868037 [mEh]      -6.78882443 [kcal/mol]     -28.40444140 [kJ/mol]
  Total SAPT2+                    -10.86890721 [mEh]      -6.82034224 [kcal/mol]     -28.53631195 [kJ/mol]

  Special recipe for scaled SAPT0 (see Manual):
    Electrostatics sSAPT0         -25.45565908 [mEh]     -15.97366723 [kcal/mol]     -66.83382370 [kJ/mol]
    Exchange sSAPT0                26.52782167 [mEh]      16.64645942 [kcal/mol]      69.64878620 [kJ/mol]
    Induction sSAPT0               -7.40109587 [mEh]      -4.64425777 [kcal/mol]     -19.43157453 [kJ/mol]
    Dispersion sSAPT0              -3.87615264 [mEh]      -2.43232251 [kcal/mol]     -10.17683737 [kJ/mol]
  Total sSAPT0                    -10.20508592 [mEh]      -6.40378809 [kcal/mol]     -26.79344938 [kJ/mol]
  --------------------------------------------------------------------------------------------------------

*** Psi4 exiting successfully. Buy a developer a beer!
