                               Psi4 1.9 release

  ==> Input File <==

--------------------------------------------------------------------------
MEMORY 60 GB

molecule dimer {
0 1
O      0.000000     0.000000     0.000000
H     -0.295966     0.756733     0.512627
H     -0.295966    -0.756733     0.512627
--
1 1
K      2.466222     0.000000     0.000000

units ang
no_reorient
no_com
symmetry c1
}

set {
basis        aug-cc-pVTZ
scf_type     df
}

energy("sapt2+")
--------------------------------------------------------------------------

  //              Dimer HF             //
    Molecular point group: c1
  Charge       = 1
  Multiplicity = 1
  Basis Set: AUG-CC-PVTZ
    Blend: AUG-CC-PVTZ
  Basis Set: (AUG-CC-PVTZ AUX)
    Blend: AUG-CC-PVTZ-JKFIT + DEF2-UNIVERSAL-JKFIT
  @DF-RHF Final Energy:  -675.09420541194345
    Total Energy =                       -675.0942054119434488
 Dipole X            :        -83.5166073           87.4306094            3.9140021
 Dipole Y            :         -0.0000000            0.0000000           -0.0000000
 Dipole Z            :         -1.2373459            1.9374493            0.7001033
 Magnitude           :                                                    3.9761234
  //            Monomer A HF           //
    Molecular point group: c1
  Multiplicity = 1
  Basis Set: AUG-CC-PVTZ
    Blend: AUG-CC-PVTZ
  Basis Set: (AUG-CC-PVTZ AUX)
    Blend: AUG-CC-PVTZ-JKFIT + DEF2-UNIVERSAL-JKFIT
  @DF-RHF Final Energy:   -76.06034830626406
    Total Energy =                        -76.0603483062640748
  //            Monomer B HF           //
    Molecular point group: c1

    Geometry (in Angstrom), charge = 1, multiplicity = 1:

       Center              X                  Y                   Z               Mass
    ------------   -----------------  -----------------  -----------------  -----------------
      Gh(O)           0.000000000000     0.000000000000     0.000000000000    15.994914619570
      Gh(H)          -0.295966000000     0.756733000000     0.512627000000     1.007825032230
      Gh(H)          -0.295966000000    -0.756733000000     0.512627000000     1.007825032230
         K            2.466222000000     0.000000000000     0.000000000000    38.963706486400

  Charge       = 1
  Multiplicity = 1
  Basis Set: AUG-CC-PVTZ
    Blend: AUG-CC-PVTZ
  Basis Set: (AUG-CC-PVTZ AUX)
    Blend: AUG-CC-PVTZ-JKFIT + DEF2-UNIVERSAL-JKFIT

    Orbital Energies [Eh]
    ---------------------

    Doubly Occupied:

       1A   -133.753654     2A    -14.709118     3A    -11.739190
       4A    -11.739184     5A    -11.739184     6A     -1.964309
       7A     -1.170967     8A     -1.170897     9A     -1.170893

  @DF-RHF Final Energy:  -599.01750885430795

   => Energetics <=

    Nuclear Repulsion Energy =              0.0000000000000000
    One-Electron Energy =                -819.7202306202167392
    Two-Electron Energy =                 220.7027217659087910
    Total Energy =                       -599.0175088543079482
 Dipole X            :        -83.8891648           88.5491987            4.6600339
 Dipole Y            :         -0.0000000            0.0000000           -0.0000000
 Dipole Z            :          0.0001002            0.0000000            0.0001002
 Magnitude           :                                                    4.6600339

    SAPT Results
  --------------------------------------------------------------------------------------------------------
    Electrostatics                -34.77119145 [mEh]     -21.81925205 [kcal/mol]     -91.29175058 [kJ/mol]
      Elst10,r                    -34.23588678 [mEh]     -21.48334330 [kcal/mol]     -89.88630835 [kJ/mol]
      Elst12,r                     -0.53530468 [mEh]      -0.33590875 [kcal/mol]      -1.40544223 [kJ/mol]

    Exchange                       28.85573699 [mEh]      18.10724833 [kcal/mol]      75.76072702 [kJ/mol]
      Exch10                       26.10814169 [mEh]      16.38310625 [kcal/mol]      68.54691655 [kJ/mol]
      Exch10(S^2)                  25.79468737 [mEh]      16.18641070 [kcal/mol]      67.72394237 [kJ/mol]
      Exch11(S^2)                   0.05157163 [mEh]       0.03236169 [kcal/mol]       0.13540130 [kJ/mol]
      Exch12(S^2)                   2.69602367 [mEh]       1.69178039 [kcal/mol]       7.07840917 [kJ/mol]

    Induction                      -9.63658199 [mEh]      -6.04704649 [kcal/mol]     -25.30084253 [kJ/mol]
      Ind20,r                     -33.32934585 [mEh]     -20.91448028 [kcal/mol]     -87.50618547 [kJ/mol]
      Ind22                        -5.97894820 [mEh]      -3.75184664 [kcal/mol]     -15.69772634 [kJ/mol]
      Exch-Ind20,r                 25.43550307 [mEh]      15.96101915 [kcal/mol]      66.78090411 [kJ/mol]
      Exch-Ind22                    4.56287249 [mEh]       2.86324571 [kcal/mol]      11.97982007 [kJ/mol]
      delta HF,r (2)               -0.32666350 [mEh]      -0.20498444 [kcal/mol]      -0.85765490 [kJ/mol]

    Dispersion                     -3.73617213 [mEh]      -2.34448341 [kcal/mol]      -9.80931858 [kJ/mol]
      Disp20                       -4.56532879 [mEh]      -2.86478707 [kcal/mol]     -11.98626909 [kJ/mol]
      Disp21                        0.48492838 [mEh]       0.30429715 [kcal/mol]       1.27317928 [kJ/mol]
      Disp22 (SDQ)                 -0.04051846 [mEh]      -0.02542572 [kcal/mol]      -0.10638120 [kJ/mol]
      Disp22 (T)                   -0.42684075 [mEh]      -0.26784661 [kcal/mol]      -1.12067023 [kJ/mol]
      Est. Disp22 (T)              -0.47883239 [mEh]      -0.30047186 [kcal/mol]      -1.25717428 [kJ/mol]
      Exch-Disp20                   0.86357913 [mEh]       0.54190409 [kcal/mol]       2.26732670 [kJ/mol]

  Total HF                        -16.34825137 [mEh]     -10.25868262 [kcal/mol]     -42.92232806 [kJ/mol]
  Total SAPT0                     -20.05000103 [mEh]     -12.58156559 [kcal/mol]     -52.64127045 [kJ/mol]
  Total SAPT2                     -19.25378611 [mEh]     -12.08193319 [kcal/mol]     -50.55080847 [kJ/mol]
  Total SAPT2+                    -19.28820859 [mEh]     -12.10353362 [kcal/mol]     -50.64118466 [kJ/mol]

  Special recipe for scaled SAPT0 (see Manual):
    Electrostatics sSAPT0         -34.23588678 [mEh]     -21.48334330 [kcal/mol]     -89.88630835 [kJ/mol]
    Exchange sSAPT0                26.10814169 [mEh]      16.38310625 [kcal/mol]      68.54691655 [kJ/mol]
    Induction sSAPT0               -7.28192394 [mEh]      -4.56947626 [kcal/mol]     -19.11868866 [kJ/mol]
    Dispersion sSAPT0              -3.66988317 [mEh]      -2.30288646 [kcal/mol]      -9.63527693 [kJ/mol]
  Total sSAPT0                    -19.07955220 [mEh]     -11.97259976 [kcal/mol]     -50.09335739 [kJ/mol]
  --------------------------------------------------------------------------------------------------------

*** Psi4 exiting successfully. Buy a developer a beer!
