                               Psi4 1.9 release

  ==> Input File <==

--------------------------------------------------------------------------
MEMORY 60 GB

molecule dimer {
0 1
O      0.000000     0.000000     0.000000
H     -0.187952     0.884151     0.325543
H     -0.383809    -0.577745     0.664777
--
1 1
K      2.466222     0.000000     0.000000

units ang
no_reorient
no_com
symmetry c1
}

set {
basis        aug-cc-pVTZ
scf_type     df
}

energy("sapt2+")
--------------------------------------------------------------------------

  //              Dimer HF             //
    Molecular point group: c1
  Charge       = 1
  Multiplicity = 1
  Basis Set: AUG-CC-PVTZ
    Blend: AUG-CC-PVTZ
  Basis Set: (AUG-CC-PVTZ AUX)
    Blend: AUG-CC-PVTZ-JKFIT + DEF2-UNIVERSAL-JKFIT
  @DF-RHF Final Energy:  -675.09362544770795
    Total Energy =                       -675.0936254477078364
 Dipole X            :        -83.5403832           87.4687270            3.9283438
 Dipole Y            :         -0.3806263            0.5790234            0.1983971
 Dipole Z            :         -1.1935655            1.8714336            0.6778681
 Magnitude           :                                                    3.9913346
  //            Monomer A HF           //
    Molecular point group: c1
  Multiplicity = 1
  Basis Set: AUG-CC-PVTZ
    Blend: AUG-CC-PVTZ
  Basis Set: (AUG-CC-PVTZ AUX)
    Blend: AUG-CC-PVTZ-JKFIT + DEF2-UNIVERSAL-JKFIT
  @DF-RHF Final Energy:   -76.06034813252863
    Total Energy =                        -76.0603481325286310
  //            Monomer B HF           //
    Molecular point group: c1

    Geometry (in Angstrom), charge = 1, multiplicity = 1:

       Center              X                  Y                   Z               Mass
    ------------   -----------------  -----------------  -----------------  -----------------
      Gh(O)           0.000000000000     0.000000000000     0.000000000000    15.994914619570
      Gh(H)          -0.187952000000     0.884151000000     0.325543000000     1.007825032230
      Gh(H)          -0.383809000000    -0.577745000000     0.664777000000     1.007825032230
         K            2.466222000000     0.000000000000     0.000000000000    38.963706486400

  Charge       = 1
  Multiplicity = 1
  Basis Set: AUG-CC-PVTZ
    Blend: AUG-CC-PVTZ
  Basis Set: (AUG-CC-PVTZ AUX)
    Blend: AUG-CC-PVTZ-JKFIT + DEF2-UNIVERSAL-JKFIT

    Orbital Energies [Eh]
    ---------------------

    Doubly Occupied:

       1A   -133.753658     2A    -14.709121     3A    -11.739193
       4A    -11.739187     5A    -11.739187     6A     -1.964310
       7A     -1.170968     8A     -1.170898     9A     -1.170894

  @DF-RHF Final Energy:  -599.01750885391357

   => Energetics <=

    Nuclear Repulsion Energy =              0.0000000000000000
    One-Electron Energy =                -819.7201902736044303
    Two-Electron Energy =                 220.7026814196907480
    Total Energy =                       -599.0175088539136823
 Dipole X            :        -83.8891628           88.5491987            4.6600359
 Dipole Y            :          0.0000057            0.0000000            0.0000057
 Dipole Z            :          0.0001000            0.0000000            0.0001000
 Magnitude           :                                                    4.6600359

    SAPT Results
  --------------------------------------------------------------------------------------------------------
    Electrostatics                -34.18919090 [mEh]     -21.45404119 [kcal/mol]     -89.76370835 [kJ/mol]
      Elst10,r                    -33.61917906 [mEh]     -21.09635336 [kcal/mol]     -88.26714246 [kJ/mol]
      Elst12,r                     -0.57001185 [mEh]      -0.35768783 [kcal/mol]      -1.49656590 [kJ/mol]

    Exchange                       28.82777200 [mEh]      18.08970004 [kcal/mol]      75.68730496 [kJ/mol]
      Exch10                       26.07071761 [mEh]      16.35962229 [kcal/mol]      68.44865966 [kJ/mol]
      Exch10(S^2)                  25.75893408 [mEh]      16.16397517 [kcal/mol]      67.63007210 [kJ/mol]
      Exch11(S^2)                   0.04864245 [mEh]       0.03052360 [kcal/mol]       0.12771074 [kJ/mol]
      Exch12(S^2)                   2.70841193 [mEh]       1.69955415 [kcal/mol]       7.11093455 [kJ/mol]

    Induction                      -9.64206708 [mEh]      -6.05048844 [kcal/mol]     -25.31524364 [kJ/mol]
      Ind20,r                     -33.27220804 [mEh]     -20.87862576 [kcal/mol]     -87.35617017 [kJ/mol]
      Ind22                        -6.00429571 [mEh]      -3.76775244 [kcal/mol]     -15.76427621 [kJ/mol]
      Exch-Ind20,r                 25.39196361 [mEh]      15.93369772 [kcal/mol]      66.66659127 [kJ/mol]
      Exch-Ind22                    4.58222844 [mEh]       2.87539176 [kcal/mol]      12.03063912 [kJ/mol]
      delta HF,r (2)               -0.33975539 [mEh]      -0.21319973 [kcal/mol]      -0.89202765 [kJ/mol]

    Dispersion                     -3.74719646 [mEh]      -2.35140128 [kcal/mol]      -9.83826295 [kJ/mol]
      Disp20                       -4.57578572 [mEh]      -2.87134889 [kcal/mol]     -12.01372376 [kJ/mol]
      Disp21                        0.48590826 [mEh]       0.30491204 [kcal/mol]       1.27575196 [kJ/mol]
      Disp22 (SDQ)                 -0.04038968 [mEh]      -0.02534491 [kcal/mol]      -0.10604310 [kJ/mol]
      Disp22 (T)                   -0.42811643 [mEh]      -0.26864712 [kcal/mol]      -1.12401954 [kJ/mol]
      Est. Disp22 (T)              -0.48017036 [mEh]      -0.30131145 [kcal/mol]      -1.26068710 [kJ/mol]
      Exch-Disp20                   0.86324105 [mEh]       0.54169193 [kcal/mol]       2.26643905 [kJ/mol]

  Total HF                        -15.76846127 [mEh]      -9.89485883 [kcal/mol]     -41.40008935 [kJ/mol]
  Total SAPT0                     -19.48100594 [mEh]     -12.22451579 [kcal/mol]     -51.14737405 [kJ/mol]
  Total SAPT2                     -18.71603066 [mEh]     -11.74448655 [kcal/mol]     -49.13893174 [kJ/mol]
  Total SAPT2+                    -18.75068245 [mEh]     -11.76623087 [kcal/mol]     -49.22990998 [kJ/mol]

  Special recipe for scaled SAPT0 (see Manual):
    Electrostatics sSAPT0         -33.61917906 [mEh]     -21.09635336 [kcal/mol]     -88.26714246 [kJ/mol]
    Exchange sSAPT0                26.07071761 [mEh]      16.35962229 [kcal/mol]      68.44865966 [kJ/mol]
    Induction sSAPT0               -7.28676941 [mEh]      -4.57251684 [kcal/mol]     -19.13141044 [kJ/mol]
    Dispersion sSAPT0              -3.68081799 [mEh]      -2.30974816 [kcal/mol]      -9.66398631 [kJ/mol]
  Total sSAPT0                    -18.51604884 [mEh]     -11.61899607 [kcal/mol]     -48.61387954 [kJ/mol]
  --------------------------------------------------------------------------------------------------------

*** Psi4 exiting successfully. Buy a developer a beer!
