                               Psi4 1.9 release

  ==> Input File <==

--------------------------------------------------------------------------
MEMORY 60 GB

molecule dimer {
0 1
O      0.000000     0.000000     0.000000
H     -0.304942     0.738224     0.528175
H      0.468186     0.498213    -0.810922
--
-1 1
F      2.426389     0.000000     0.000000

units ang
no_reorient
no_com
symmetry c1
}

set {
basis        aug-cc-pVTZ
scf_type     df
}

energy("sapt2+")
--------------------------------------------------------------------------

  //              Dimer HF             //
    Molecular point group: c1
  Charge       = -1
  Multiplicity = 1
  Basis Set: AUG-CC-PVTZ
    Blend: AUG-CC-PVTZ
  Basis Set: (AUG-CC-PVTZ AUX)
    Blend: AUG-CC-PVTZ-JKFIT
  @DF-RHF Final Energy:  -175.48852970192928
    Total Energy =                       -175.4885297019292523
 Dipole X            :        -45.7582107           41.5753826           -4.1828281
 Dipole Y            :         -1.6243992            2.3365273            0.7121281
 Dipole Z            :          0.4009411           -0.5343144           -0.1333733
 Magnitude           :                                                    4.2451108
  //            Monomer A HF           //
    Molecular point group: c1
  Multiplicity = 1
  Basis Set: AUG-CC-PVTZ
    Blend: AUG-CC-PVTZ
  Basis Set: (AUG-CC-PVTZ AUX)
    Blend: AUG-CC-PVTZ-JKFIT
  @DF-RHF Final Energy:   -76.04862019701112
    Total Energy =                        -76.0486201970111040
  //            Monomer B HF           //
    Molecular point group: c1

    Geometry (in Angstrom), charge = -1, multiplicity = 1:

       Center              X                  Y                   Z               Mass
    ------------   -----------------  -----------------  -----------------  -----------------
      Gh(O)           0.000000000000     0.000000000000     0.000000000000    15.994914619570
      Gh(H)          -0.304942000000     0.738224000000     0.528175000000     1.007825032230
      Gh(H)           0.468186000000     0.498213000000    -0.810922000000     1.007825032230
         F            2.426389000000     0.000000000000     0.000000000000    18.998403162730

  Charge       = -1
  Multiplicity = 1
  Basis Set: AUG-CC-PVTZ
    Blend: AUG-CC-PVTZ
  Basis Set: (AUG-CC-PVTZ AUX)
    Blend: AUG-CC-PVTZ-JKFIT

    Orbital Energies [Eh]
    ---------------------

    Doubly Occupied:

       1A    -25.833741     2A     -1.076029     3A     -0.181012
       4A     -0.180961     5A     -0.180945

  @DF-RHF Final Energy:   -99.45086953453398

   => Energetics <=

    Nuclear Repulsion Energy =              0.0000000000000000
    One-Electron Energy =                -143.9963621025748068
    Two-Electron Energy =                  44.5454925680408280
    Total Energy =                        -99.4508695345339788
 Dipole X            :        -45.8524520           41.2668962           -4.5855558
 Dipole Y            :         -0.0002995            0.0000000           -0.0002995
 Dipole Z            :         -0.0002140            0.0000000           -0.0002140
 Magnitude           :                                                    4.5855559

    SAPT Results
  --------------------------------------------------------------------------------------------------------
    Electrostatics                 -9.55825076 [mEh]      -5.99789290 [kcal/mol]     -25.09518391 [kJ/mol]
      Elst10,r                     -4.81855258 [mEh]      -3.02368739 [kcal/mol]     -12.65110805 [kJ/mol]
      Elst12,r                     -4.73969818 [mEh]      -2.97420551 [kcal/mol]     -12.44407586 [kJ/mol]

    Exchange                       33.01305226 [mEh]      20.71600305 [kcal/mol]      86.67575678 [kJ/mol]
      Exch10                       25.55057173 [mEh]      16.03322582 [kcal/mol]      67.08301682 [kJ/mol]
      Exch10(S^2)                  25.31605354 [mEh]      15.88606344 [kcal/mol]      66.46728942 [kJ/mol]
      Exch11(S^2)                  -0.48541725 [mEh]      -0.30460393 [kcal/mol]      -1.27446282 [kJ/mol]
      Exch12(S^2)                   7.94789779 [mEh]       4.98738116 [kcal/mol]      20.86720278 [kJ/mol]

    Induction                     -12.21682348 [mEh]      -7.66617247 [kcal/mol]     -32.07526563 [kJ/mol]
      Ind20,r                     -20.00546812 [mEh]     -12.55362077 [kcal/mol]     -52.52434932 [kJ/mol]
      Ind22                        -6.25838533 [mEh]      -3.92719609 [kcal/mol]     -16.43138843 [kJ/mol]
      Exch-Ind20,r                 12.19034570 [mEh]       7.64955741 [kcal/mol]      32.00574822 [kJ/mol]
      Exch-Ind22                    3.81355139 [mEh]       2.39303962 [kcal/mol]      10.01247779 [kJ/mol]
      delta HF,r (2)               -1.95686711 [mEh]      -1.22795265 [kcal/mol]      -5.13775389 [kJ/mol]

    Dispersion                     -7.68854435 [mEh]      -4.82463442 [kcal/mol]     -20.18627041 [kJ/mol]
      Disp20                       -7.94360947 [mEh]      -4.98469020 [kcal/mol]     -20.85594378 [kJ/mol]
      Disp21                        0.32065375 [mEh]       0.20121327 [kcal/mol]       0.84187631 [kJ/mol]
      Disp22 (SDQ)                 -1.01386920 [mEh]      -0.63621253 [kcal/mol]      -2.66191321 [kJ/mol]
      Disp22 (T)                   -1.37783710 [mEh]      -0.86460583 [kcal/mol]      -3.61751080 [kJ/mol]
      Est. Disp22 (T)              -1.66505837 [mEh]      -1.04483990 [kcal/mol]      -4.37161014 [kJ/mol]
      Exch-Disp20                   2.61333893 [mEh]       1.63989494 [kcal/mol]       6.86132041 [kJ/mol]

  Total HF                         10.96002962 [mEh]       6.87752242 [kcal/mol]      28.77555379 [kJ/mol]
  Total SAPT0                       5.62975908 [mEh]       3.53272716 [kcal/mol]      14.78093042 [kJ/mol]
  Total SAPT2                       5.90770749 [mEh]       3.70714242 [kcal/mol]      15.51068388 [kJ/mol]
  Total SAPT2+                      3.54943368 [mEh]       2.22730326 [kcal/mol]       9.31903683 [kJ/mol]

  Special recipe for scaled SAPT0 (see Manual):
    Electrostatics sSAPT0          -4.81855258 [mEh]      -3.02368739 [kcal/mol]     -12.65110805 [kJ/mol]
    Exchange sSAPT0                25.55057173 [mEh]      16.03322582 [kcal/mol]      67.08301682 [kJ/mol]
    Induction sSAPT0               -9.43006149 [mEh]      -5.91745292 [kcal/mol]     -24.75862304 [kJ/mol]
    Dispersion sSAPT0              -5.25696877 [mEh]      -3.29879771 [kcal/mol]     -13.80216961 [kJ/mol]
  Total sSAPT0                      6.04498889 [mEh]       3.79328779 [kcal/mol]      15.87111613 [kJ/mol]
  --------------------------------------------------------------------------------------------------------

*** Psi4 exiting successfully. Buy a developer a beer!
