                               Psi4 1.9 release

  ==> Input File <==

--------------------------------------------------------------------------
MEMORY 60 GB

molecule dimer {
0 1
O      0.000000     0.000000     0.000000
H     -0.448644     0.334379     0.777074
H      0.280908     0.899651    -0.486546
--
-1 1
F      2.426389     0.000000     0.000000

units ang
no_reorient
no_com
symmetry c1
}

set {
basis        aug-cc-pVTZ
scf_type     df
}

energy("sapt2+")
--------------------------------------------------------------------------

  //              Dimer HF             //
    Molecular point group: c1
  Charge       = -1
  Multiplicity = 1
  Basis Set: AUG-CC-PVTZ
    Blend: AUG-CC-PVTZ
  Basis Set: (AUG-CC-PVTZ AUX)
    Blend: AUG-CC-PVTZ-JKFIT
  @DF-RHF Final Energy:  -175.48059547135333
    Total Energy =                       -175.4805954713533254
 Dipole X            :        -45.3883606           40.9499211           -4.4384396
 Dipole Y            :         -1.6337291            2.3319787            0.6982496
 Dipole Z            :         -0.3517918            0.5490184            0.1972266
 Magnitude           :                                                    4.4973544
  //            Monomer A HF           //
    Molecular point group: c1
  Multiplicity = 1
  Basis Set: AUG-CC-PVTZ
    Blend: AUG-CC-PVTZ
  Basis Set: (AUG-CC-PVTZ AUX)
    Blend: AUG-CC-PVTZ-JKFIT
  @DF-RHF Final Energy:   -76.04861963265185
    Total Energy =                        -76.0486196326518495
  //            Monomer B HF           //
    Molecular point group: c1

    Geometry (in Angstrom), charge = -1, multiplicity = 1:

       Center              X                  Y                   Z               Mass
    ------------   -----------------  -----------------  -----------------  -----------------
      Gh(O)           0.000000000000     0.000000000000     0.000000000000    15.994914619570
      Gh(H)          -0.448644000000     0.334379000000     0.777074000000     1.007825032230
      Gh(H)           0.280908000000     0.899651000000    -0.486546000000     1.007825032230
         F            2.426389000000     0.000000000000     0.000000000000    18.998403162730

  Charge       = -1
  Multiplicity = 1
  Basis Set: AUG-CC-PVTZ
    Blend: AUG-CC-PVTZ
  Basis Set: (AUG-CC-PVTZ AUX)
    Blend: AUG-CC-PVTZ-JKFIT

    Orbital Energies [Eh]
    ---------------------

    Doubly Occupied:

       1A    -25.833746     2A     -1.076030     3A     -0.181007
       4A     -0.180963     5A     -0.180948

  @DF-RHF Final Energy:   -99.45086288629584

   => Energetics <=

    Nuclear Repulsion Energy =              0.0000000000000000
    One-Electron Energy =                -143.9963376891506357
    Two-Electron Energy =                  44.5454748028548053
    Total Energy =                        -99.4508628862958233
 Dipole X            :        -45.8523517           41.2668962           -4.5854556
 Dipole Y            :         -0.0002597            0.0000000           -0.0002597
 Dipole Z            :         -0.0002751            0.0000000           -0.0002751
 Magnitude           :                                                    4.5854556

    SAPT Results
  --------------------------------------------------------------------------------------------------------
    Electrostatics                 -0.05992383 [mEh]      -0.03760277 [kcal/mol]      -0.15733001 [kJ/mol]
      Elst10,r                      5.09276332 [mEh]       3.19575723 [kcal/mol]      13.37104825 [kJ/mol]
      Elst12,r                     -5.15268715 [mEh]      -3.23336000 [kcal/mol]     -13.52837825 [kJ/mol]

    Exchange                       29.30390776 [mEh]      18.38847974 [kcal/mol]      76.93739923 [kJ/mol]
      Exch10                       22.58323011 [mEh]      14.17119084 [kcal/mol]      59.29226249 [kJ/mol]
      Exch10(S^2)                  22.39804923 [mEh]      14.05498809 [kcal/mol]      58.80607016 [kJ/mol]
      Exch11(S^2)                  -0.60412556 [mEh]      -0.37909451 [kcal/mol]      -1.58613143 [kJ/mol]
      Exch12(S^2)                   7.32480321 [mEh]       4.59638341 [kcal/mol]      19.23126818 [kJ/mol]

    Induction                     -11.07245101 [mEh]      -6.94806791 [kcal/mol]     -29.07071612 [kJ/mol]
      Ind20,r                     -18.27777994 [mEh]     -11.46948007 [kcal/mol]     -47.98830462 [kJ/mol]
      Ind22                        -5.82906957 [mEh]      -3.65779638 [kcal/mol]     -15.30422004 [kJ/mol]
      Exch-Ind20,r                 11.11756257 [mEh]       6.97637584 [kcal/mol]      29.18915651 [kJ/mol]
      Exch-Ind22                    3.54556439 [mEh]       2.22487524 [kcal/mol]       9.30887802 [kJ/mol]
      delta HF,r (2)               -1.62872847 [mEh]      -1.02204254 [kcal/mol]      -4.27622600 [kJ/mol]

    Dispersion                     -6.97702031 [mEh]      -4.37814634 [kcal/mol]     -18.31816430 [kJ/mol]
      Disp20                       -7.22602598 [mEh]      -4.53439976 [kcal/mol]     -18.97192860 [kJ/mol]
      Disp21                        0.33249882 [mEh]       0.20864616 [kcal/mol]       0.87297552 [kJ/mol]
      Disp22 (SDQ)                 -0.94915275 [mEh]      -0.59560234 [kcal/mol]      -2.49200020 [kJ/mol]
      Disp22 (T)                   -1.24676116 [mEh]      -0.78235444 [kcal/mol]      -3.27337097 [kJ/mol]
      Est. Disp22 (T)              -1.51341753 [mEh]      -0.94968384 [kcal/mol]      -3.97347717 [kJ/mol]
      Exch-Disp20                   2.37907713 [mEh]       1.49289344 [kcal/mol]       6.24626615 [kJ/mol]

  Total HF                         18.88704759 [mEh]      11.85180130 [kcal/mol]      49.58793663 [kJ/mol]
  Total SAPT0                      14.04009875 [mEh]       8.81029498 [kcal/mol]      36.86227418 [kJ/mol]
  Total SAPT2                      13.32458407 [mEh]       8.36130274 [kcal/mol]      34.98369065 [kJ/mol]
  Total SAPT2+                     11.19451261 [mEh]       7.02466272 [kcal/mol]      29.39118881 [kJ/mol]

  Special recipe for scaled SAPT0 (see Manual):
    Electrostatics sSAPT0           5.09276332 [mEh]       3.19575723 [kcal/mol]      13.37104825 [kJ/mol]
    Exchange sSAPT0                22.58323011 [mEh]      14.17119084 [kcal/mol]      59.29226249 [kJ/mol]
    Induction sSAPT0               -8.51090892 [mEh]      -5.34067598 [kcal/mol]     -22.34538829 [kJ/mol]
    Dispersion sSAPT0              -4.78745098 [mEh]      -3.00417085 [kcal/mol]     -12.56945082 [kJ/mol]
  Total sSAPT0                     14.37763353 [mEh]       9.02210125 [kcal/mol]      37.74847163 [kJ/mol]
  --------------------------------------------------------------------------------------------------------

*** Psi4 exiting successfully. Buy a developer a beer!
