                               Psi4 1.9 release

  ==> Input File <==

--------------------------------------------------------------------------
MEMORY 60 GB

molecule dimer {
0 1
O      0.000000     0.000000     0.000000
H     -0.079532     0.944263     0.137753
H      0.530014    -0.036721    -0.918011
--
-1 1
F      2.426389     0.000000     0.000000

units ang
no_reorient
no_com
symmetry c1
}

set {
basis        aug-cc-pVTZ
scf_type     df
}

energy("sapt2+")
--------------------------------------------------------------------------

  //              Dimer HF             //
    Molecular point group: c1
  Charge       = -1
  Multiplicity = 1
  Basis Set: AUG-CC-PVTZ
    Blend: AUG-CC-PVTZ
  Basis Set: (AUG-CC-PVTZ AUX)
    Blend: AUG-CC-PVTZ-JKFIT
  @DF-RHF Final Energy:  -175.49414052229582
    Total Energy =                       -175.4941405222958508
 Dipole X            :        -46.0910715           42.1181838           -3.9728877
 Dipole Y            :         -1.1849303            1.7150058            0.5300755
 Dipole Z            :          1.0500223           -1.4744739           -0.4244517
 Magnitude           :                                                    4.0305057
  //            Monomer A HF           //
    Molecular point group: c1
  Multiplicity = 1
  Basis Set: AUG-CC-PVTZ
    Blend: AUG-CC-PVTZ
  Basis Set: (AUG-CC-PVTZ AUX)
    Blend: AUG-CC-PVTZ-JKFIT
  @DF-RHF Final Energy:   -76.04861812071458
    Total Energy =                        -76.0486181207145648
  //            Monomer B HF           //
    Molecular point group: c1

    Geometry (in Angstrom), charge = -1, multiplicity = 1:

       Center              X                  Y                   Z               Mass
    ------------   -----------------  -----------------  -----------------  -----------------
      Gh(O)           0.000000000000     0.000000000000     0.000000000000    15.994914619570
      Gh(H)          -0.079532000000     0.944263000000     0.137753000000     1.007825032230
      Gh(H)           0.530014000000    -0.036721000000    -0.918011000000     1.007825032230
         F            2.426389000000     0.000000000000     0.000000000000    18.998403162730

  Charge       = -1
  Multiplicity = 1
  Basis Set: AUG-CC-PVTZ
    Blend: AUG-CC-PVTZ
  Basis Set: (AUG-CC-PVTZ AUX)
    Blend: AUG-CC-PVTZ-JKFIT

    Orbital Energies [Eh]
    ---------------------

    Doubly Occupied:

       1A    -25.833744     2A     -1.076032     3A     -0.181018
       4A     -0.180964     5A     -0.180946

  @DF-RHF Final Energy:   -99.45087361538884

   => Energetics <=

    Nuclear Repulsion Energy =              0.0000000000000000
    One-Electron Energy =                -143.9963412765950750
    Two-Electron Energy =                  44.5454676612062315
    Total Energy =                        -99.4508736153888435
 Dipole X            :        -45.8526178           41.2668962           -4.5857216
 Dipole Y            :         -0.0003410            0.0000000           -0.0003410
 Dipole Z            :          0.0000076            0.0000000            0.0000076
 Magnitude           :                                                    4.5857216

    SAPT Results
  --------------------------------------------------------------------------------------------------------
    Electrostatics                -16.46490995 [mEh]     -10.33188698 [kcal/mol]     -43.22861511 [kJ/mol]
      Elst10,r                    -12.07150507 [mEh]      -7.57498379 [kcal/mol]     -31.69373218 [kJ/mol]
      Elst12,r                     -4.39340488 [mEh]      -2.75690319 [kcal/mol]     -11.53488293 [kJ/mol]

    Exchange                       35.85221954 [mEh]      22.49760741 [kcal/mol]      94.12998942 [kJ/mol]
      Exch10                       27.76187404 [mEh]      17.42083897 [kcal/mol]      72.88879026 [kJ/mol]
      Exch10(S^2)                  27.48825103 [mEh]      17.24913794 [kcal/mol]      72.17039313 [kJ/mol]
      Exch11(S^2)                  -0.38770145 [mEh]      -0.24328634 [kcal/mol]      -1.01791003 [kJ/mol]
      Exch12(S^2)                   8.47804695 [mEh]       5.32005478 [kcal/mol]      22.25910919 [kJ/mol]

    Induction                     -12.89465015 [mEh]      -8.09151513 [kcal/mol]     -33.85489930 [kJ/mol]
      Ind20,r                     -21.24106173 [mEh]     -13.32896747 [kcal/mol]     -55.76839988 [kJ/mol]
      Ind22                        -6.64247746 [mEh]      -4.16821754 [kcal/mol]     -17.43982218 [kJ/mol]
      Exch-Ind20,r                 13.06919711 [mEh]       8.20104500 [kcal/mol]      34.31317230 [kJ/mol]
      Exch-Ind22                    4.08698249 [mEh]       2.56462023 [kcal/mol]      10.73037104 [kJ/mol]
      delta HF,r (2)               -2.16729056 [mEh]      -1.35999536 [kcal/mol]      -5.69022058 [kJ/mol]

    Dispersion                     -8.22770774 [mEh]      -5.16296455 [kcal/mol]     -21.60184369 [kJ/mol]
      Disp20                       -8.48096282 [mEh]      -5.32188452 [kcal/mol]     -22.26676482 [kJ/mol]
      Disp21                        0.31679483 [mEh]       0.19879175 [kcal/mol]       0.83174470 [kJ/mol]
      Disp22 (SDQ)                 -1.08151520 [mEh]      -0.67866103 [kcal/mol]      -2.83951777 [kJ/mol]
      Disp22 (T)                   -1.48648810 [mEh]      -0.93278536 [kcal/mol]      -3.90277396 [kJ/mol]
      Est. Disp22 (T)              -1.79108054 [mEh]      -1.12392000 [kcal/mol]      -4.70248130 [kJ/mol]
      Exch-Disp20                   2.80905599 [mEh]       1.76270925 [kcal/mol]       7.37517549 [kJ/mol]

  Total HF                          5.35121381 [mEh]       3.35793736 [kcal/mol]      14.04960992 [kJ/mol]
  Total SAPT0                      -0.32069302 [mEh]      -0.20123791 [kcal/mol]      -0.84197941 [kJ/mol]
  Total SAPT2                       0.82075261 [mEh]       0.51503004 [kcal/mol]       2.15488569 [kJ/mol]
  Total SAPT2+                     -1.73504830 [mEh]      -1.08875925 [kcal/mol]      -4.55536868 [kJ/mol]

  Special recipe for scaled SAPT0 (see Manual):
    Electrostatics sSAPT0         -12.07150507 [mEh]      -7.57498379 [kcal/mol]     -31.69373218 [kJ/mol]
    Exchange sSAPT0                27.76187404 [mEh]      17.42083897 [kcal/mol]      72.88879026 [kJ/mol]
    Induction sSAPT0               -9.94497792 [mEh]      -6.24056786 [kcal/mol]     -26.11053594 [kJ/mol]
    Dispersion sSAPT0              -5.58718349 [mEh]      -3.50601057 [kcal/mol]     -14.66914824 [kJ/mol]
  Total sSAPT0                      0.15820756 [mEh]       0.09927675 [kcal/mol]       0.41537390 [kJ/mol]
  --------------------------------------------------------------------------------------------------------

*** Psi4 exiting successfully. Buy a developer a beer!
