                               Psi4 1.9 release

  ==> Input File <==

--------------------------------------------------------------------------
MEMORY 60 GB

molecule dimer {
0 1
O      0.000000     0.000000     0.000000
H      0.167189     0.897287    -0.289581
H      0.449825    -0.561815    -0.779120
--
-1 1
F      2.426389     0.000000     0.000000

units ang
no_reorient
no_com
symmetry c1
}

set {
basis        aug-cc-pVTZ
scf_type     df
}

energy("sapt2+")
--------------------------------------------------------------------------

  //              Dimer HF             //
    Molecular point group: c1
  Charge       = -1
  Multiplicity = 1
  Basis Set: AUG-CC-PVTZ
    Blend: AUG-CC-PVTZ
  Basis Set: (AUG-CC-PVTZ AUX)
    Blend: AUG-CC-PVTZ-JKFIT
  @DF-RHF Final Energy:  -175.49582567581260
    Total Energy =                       -175.4958256758125685
 Dipole X            :        -46.3118268           42.4328836           -3.8789432
 Dipole Y            :         -0.4287800            0.6339502            0.2051702
 Dipole Z            :          1.4239072           -2.0195522           -0.5956450
 Magnitude           :                                                    3.9297694
  //            Monomer A HF           //
    Molecular point group: c1
  Multiplicity = 1
  Basis Set: AUG-CC-PVTZ
    Blend: AUG-CC-PVTZ
  Basis Set: (AUG-CC-PVTZ AUX)
    Blend: AUG-CC-PVTZ-JKFIT
  @DF-RHF Final Energy:   -76.04861331508803
    Total Energy =                        -76.0486133150880335
  //            Monomer B HF           //
    Molecular point group: c1

    Geometry (in Angstrom), charge = -1, multiplicity = 1:

       Center              X                  Y                   Z               Mass
    ------------   -----------------  -----------------  -----------------  -----------------
      Gh(O)           0.000000000000     0.000000000000     0.000000000000    15.994914619570
      Gh(H)           0.167189000000     0.897287000000    -0.289581000000     1.007825032230
      Gh(H)           0.449825000000    -0.561815000000    -0.779120000000     1.007825032230
         F            2.426389000000     0.000000000000     0.000000000000    18.998403162730

  Charge       = -1
  Multiplicity = 1
  Basis Set: AUG-CC-PVTZ
    Blend: AUG-CC-PVTZ
  Basis Set: (AUG-CC-PVTZ AUX)
    Blend: AUG-CC-PVTZ-JKFIT

    Orbital Energies [Eh]
    ---------------------

    Doubly Occupied:

       1A    -25.833749     2A     -1.076037     3A     -0.181019
       4A     -0.180968     5A     -0.180950

  @DF-RHF Final Energy:   -99.45087162771446

   => Energetics <=

    Nuclear Repulsion Energy =              0.0000000000000000
    One-Electron Energy =                -143.9962974224371806
    Two-Electron Energy =                  44.5454257947227319
    Total Energy =                        -99.4508716277144487
 Dipole X            :        -45.8528043           41.2668962           -4.5859081
 Dipole Y            :         -0.0000790            0.0000000           -0.0000790
 Dipole Z            :          0.0001221            0.0000000            0.0001221
 Magnitude           :                                                    4.5859081

    SAPT Results
  --------------------------------------------------------------------------------------------------------
    Electrostatics                -18.38058962 [mEh]     -11.53399412 [kcal/mol]     -48.25823140 [kJ/mol]
      Elst10,r                    -14.15748433 [mEh]      -8.88395554 [kcal/mol]     -37.17046997 [kJ/mol]
      Elst12,r                     -4.22310529 [mEh]      -2.65003858 [kcal/mol]     -11.08776142 [kJ/mol]

    Exchange                       35.69569279 [mEh]      22.39938540 [kcal/mol]      93.71902852 [kJ/mol]
      Exch10                       27.42145299 [mEh]      17.20722154 [kcal/mol]      71.99501490 [kJ/mol]
      Exch10(S^2)                  27.16879598 [mEh]      17.04867687 [kcal/mol]      71.33166402 [kJ/mol]
      Exch11(S^2)                  -0.34965287 [mEh]      -0.21941049 [kcal/mol]      -0.91801349 [kJ/mol]
      Exch12(S^2)                   8.62389267 [mEh]       5.41157435 [kcal/mol]      22.64202710 [kJ/mol]

    Induction                     -12.10865277 [mEh]      -7.59829433 [kcal/mol]     -31.79126347 [kJ/mol]
      Ind20,r                     -21.00425557 [mEh]     -13.18036936 [kcal/mol]     -55.14666539 [kJ/mol]
      Ind22                        -6.80186809 [mEh]      -4.26823667 [kcal/mol]     -17.85830222 [kJ/mol]
      Exch-Ind20,r                 13.27202259 [mEh]       8.32831991 [kcal/mol]      34.84569051 [kJ/mol]
      Exch-Ind22                    4.29791700 [mEh]       2.69698363 [kcal/mol]      11.28417952 [kJ/mol]
      delta HF,r (2)               -1.87246870 [mEh]      -1.17499185 [kcal/mol]      -4.91616589 [kJ/mol]

    Dispersion                     -8.26301717 [mEh]      -5.18512156 [kcal/mol]     -21.69454860 [kJ/mol]
      Disp20                       -8.46850051 [mEh]      -5.31406430 [kcal/mol]     -22.23404501 [kJ/mol]
      Disp21                        0.30499317 [mEh]       0.19138610 [kcal/mol]       0.80075945 [kJ/mol]
      Disp22 (SDQ)                 -1.11635784 [mEh]      -0.70052512 [kcal/mol]      -2.93099710 [kJ/mol]
      Disp22 (T)                   -1.50914339 [mEh]      -0.94700178 [kcal/mol]      -3.96225543 [kJ/mol]
      Est. Disp22 (T)              -1.81058403 [mEh]      -1.13615863 [kcal/mol]      -4.75368771 [kJ/mol]
      Exch-Disp20                   2.82743203 [mEh]       1.77424039 [kcal/mol]       7.42342177 [kJ/mol]

  Total HF                          3.65926699 [mEh]       2.29622470 [kcal/mol]       9.60740416 [kJ/mol]
  Total SAPT0                      -1.98180148 [mEh]      -1.24359921 [kcal/mol]      -5.20321908 [kJ/mol]
  Total SAPT2                      -0.43461807 [mEh]      -0.27272696 [kcal/mol]      -1.14108959 [kJ/mol]
  Total SAPT2+                     -3.05656677 [mEh]      -1.91802461 [kcal/mol]      -8.02501495 [kJ/mol]

  Special recipe for scaled SAPT0 (see Manual):
    Electrostatics sSAPT0         -14.15748433 [mEh]      -8.88395554 [kcal/mol]     -37.17046997 [kJ/mol]
    Exchange sSAPT0                27.42145299 [mEh]      17.20722154 [kcal/mol]      71.99501490 [kJ/mol]
    Induction sSAPT0               -9.23097698 [mEh]      -5.79252550 [kcal/mol]     -24.23592671 [kJ/mol]
    Dispersion sSAPT0              -5.56145128 [mEh]      -3.48986337 [kcal/mol]     -14.60158833 [kJ/mol]
  Total sSAPT0                     -1.52845959 [mEh]      -0.95912288 [kcal/mol]      -4.01297011 [kJ/mol]
  --------------------------------------------------------------------------------------------------------

*** Psi4 exiting successfully. Buy a developer a beer!
