                               Psi4 1.9 release

  ==> Input File <==

--------------------------------------------------------------------------
MEMORY 60 GB

molecule dimer {
0 1
O      0.000000     0.000000     0.000000
H     -0.390085     0.555220     0.675646
H      0.387759     0.723587    -0.671619
--
-1 1
F      2.426389     0.000000     0.000000

units ang
no_reorient
no_com
symmetry c1
}

set {
basis        aug-cc-pVTZ
scf_type     df
}

energy("sapt2+")
--------------------------------------------------------------------------

  //              Dimer HF             //
    Molecular point group: c1
  Charge       = -1
  Multiplicity = 1
  Basis Set: AUG-CC-PVTZ
    Blend: AUG-CC-PVTZ
  Basis Set: (AUG-CC-PVTZ AUX)
    Blend: AUG-CC-PVTZ-JKFIT
  @DF-RHF Final Energy:  -175.48462377680920
    Total Energy =                       -175.4846237768092010
 Dipole X            :        -45.5740873           41.2625007           -4.3115866
 Dipole Y            :         -1.6856057            2.4165950            0.7309893
 Dipole Z            :          0.0252021            0.0076099            0.0328121
 Magnitude           :                                                    4.3732369
  //            Monomer A HF           //
    Molecular point group: c1
  Multiplicity = 1
  Basis Set: AUG-CC-PVTZ
    Blend: AUG-CC-PVTZ
  Basis Set: (AUG-CC-PVTZ AUX)
    Blend: AUG-CC-PVTZ-JKFIT
  @DF-RHF Final Energy:   -76.04862004306632
    Total Energy =                        -76.0486200430663359
  //            Monomer B HF           //
    Molecular point group: c1

    Geometry (in Angstrom), charge = -1, multiplicity = 1:

       Center              X                  Y                   Z               Mass
    ------------   -----------------  -----------------  -----------------  -----------------
      Gh(O)           0.000000000000     0.000000000000     0.000000000000    15.994914619570
      Gh(H)          -0.390085000000     0.555220000000     0.675646000000     1.007825032230
      Gh(H)           0.387759000000     0.723587000000    -0.671619000000     1.007825032230
         F            2.426389000000     0.000000000000     0.000000000000    18.998403162730

  Charge       = -1
  Multiplicity = 1
  Basis Set: AUG-CC-PVTZ
    Blend: AUG-CC-PVTZ
  Basis Set: (AUG-CC-PVTZ AUX)
    Blend: AUG-CC-PVTZ-JKFIT

    Orbital Energies [Eh]
    ---------------------

    Doubly Occupied:

       1A    -25.833743     2A     -1.076029     3A     -0.181009
       4A     -0.180962     5A     -0.180946

  @DF-RHF Final Energy:   -99.45086608051308

   => Energetics <=

    Nuclear Repulsion Energy =              0.0000000000000000
    One-Electron Energy =                -143.9963529284263188
    Two-Electron Energy =                  44.5454868479132386
    Total Energy =                        -99.4508660805130802
 Dipole X            :        -45.8524053           41.2668962           -4.5855091
 Dipole Y            :         -0.0002503            0.0000000           -0.0002503
 Dipole Z            :         -0.0002526            0.0000000           -0.0002526
 Magnitude           :                                                    4.5855091

    SAPT Results
  --------------------------------------------------------------------------------------------------------
    Electrostatics                 -4.82569961 [mEh]      -3.02817222 [kcal/mol]     -12.66987257 [kJ/mol]
      Elst10,r                      0.12415851 [mEh]       0.07791064 [kcal/mol]       0.32597811 [kJ/mol]
      Elst12,r                     -4.94985811 [mEh]      -3.10608286 [kcal/mol]     -12.99585069 [kJ/mol]

    Exchange                       31.04114323 [mEh]      19.47861145 [kcal/mol]      81.49851031 [kJ/mol]
      Exch10                       23.96439037 [mEh]      15.03788199 [kcal/mol]      62.91849824 [kJ/mol]
      Exch10(S^2)                  23.75789741 [mEh]      14.90830570 [kcal/mol]      62.37635105 [kJ/mol]
      Exch11(S^2)                  -0.54467263 [mEh]      -0.34178724 [kcal/mol]      -1.43003780 [kJ/mol]
      Exch12(S^2)                   7.62142549 [mEh]       4.78251670 [kcal/mol]      20.01004987 [kJ/mol]

    Induction                     -11.58430571 [mEh]      -7.26926158 [kcal/mol]     -30.41459044 [kJ/mol]
      Ind20,r                     -19.08846696 [mEh]     -11.97819386 [kcal/mol]     -50.11676310 [kJ/mol]
      Ind22                        -6.03440639 [mEh]      -3.78664718 [kcal/mol]     -15.84333179 [kJ/mol]
      Exch-Ind20,r                 11.62914457 [mEh]       7.29739839 [kcal/mol]      30.53231486 [kJ/mol]
      Exch-Ind22                    3.67630279 [mEh]       2.30691483 [kcal/mol]       9.65213164 [kJ/mol]
      delta HF,r (2)               -1.76687971 [mEh]      -1.10873376 [kcal/mol]      -4.63894205 [kJ/mol]

    Dispersion                     -7.31896164 [mEh]      -4.59271777 [kcal/mol]     -19.21593113 [kJ/mol]
      Disp20                       -7.56689592 [mEh]      -4.74829888 [kcal/mol]     -19.86688250 [kJ/mol]
      Disp21                        0.32482655 [mEh]       0.20383174 [kcal/mol]       0.85283198 [kJ/mol]
      Disp22 (SDQ)                 -0.97905833 [mEh]      -0.61436838 [kcal/mol]      -2.57051730 [kJ/mol]
      Disp22 (T)                   -1.31069203 [mEh]      -0.82247167 [kcal/mol]      -3.44122145 [kJ/mol]
      Est. Disp22 (T)              -1.58544094 [mEh]      -0.99487921 [kcal/mol]      -4.16257461 [kJ/mol]
      Exch-Disp20                   2.48760701 [mEh]       1.56099696 [kcal/mol]       6.53121130 [kJ/mol]

  Total HF                         14.86234677 [mEh]       9.32626340 [kcal/mol]      39.02108607 [kJ/mol]
  Total SAPT0                       9.78305786 [mEh]       6.13896149 [kcal/mol]      25.68541487 [kJ/mol]
  Total SAPT2                       9.55184900 [mEh]       5.99387574 [kcal/mol]      25.07837610 [kJ/mol]
  Total SAPT2+                      7.31217628 [mEh]       4.58845989 [kcal/mol]      19.19811617 [kJ/mol]

  Special recipe for scaled SAPT0 (see Manual):
    Electrostatics sSAPT0           0.12415851 [mEh]       0.07791064 [kcal/mol]       0.32597811 [kJ/mol]
    Exchange sSAPT0                23.96439037 [mEh]      15.03788199 [kcal/mol]      62.91849824 [kJ/mol]
    Induction sSAPT0               -8.92033308 [mEh]      -5.59759352 [kcal/mol]     -23.42033128 [kJ/mol]
    Dispersion sSAPT0              -5.01386003 [mEh]      -3.14624467 [kcal/mol]     -13.16388770 [kJ/mol]
  Total sSAPT0                     10.15435576 [mEh]       6.37195444 [kcal/mol]      26.66025738 [kJ/mol]
  --------------------------------------------------------------------------------------------------------

*** Psi4 exiting successfully. Buy a developer a beer!
