                               Psi4 1.9 release

  ==> Input File <==

--------------------------------------------------------------------------
MEMORY 60 GB

molecule dimer {
0 1
O      0.000000     0.000000     0.000000
H     -0.199018     0.870919     0.344710
H      0.516706     0.238886    -0.894961
--
-1 1
F      2.426389     0.000000     0.000000

units ang
no_reorient
no_com
symmetry c1
}

set {
basis        aug-cc-pVTZ
scf_type     df
}

energy("sapt2+")
--------------------------------------------------------------------------

  //              Dimer HF             //
    Molecular point group: c1
  Charge       = -1
  Multiplicity = 1
  Basis Set: AUG-CC-PVTZ
    Blend: AUG-CC-PVTZ
  Basis Set: (AUG-CC-PVTZ AUX)
    Blend: AUG-CC-PVTZ-JKFIT
  @DF-RHF Final Energy:  -175.49182974109686
    Total Energy =                       -175.4918297410968648
 Dipole X            :        -45.9330288           41.8672395           -4.0657894
 Dipole Y            :         -1.4538430            2.0972275            0.6433845
 Dipole Z            :          0.7503941           -1.0398237           -0.2894296
 Magnitude           :                                                    4.1265429
  //            Monomer A HF           //
    Molecular point group: c1
  Multiplicity = 1
  Basis Set: AUG-CC-PVTZ
    Blend: AUG-CC-PVTZ
  Basis Set: (AUG-CC-PVTZ AUX)
    Blend: AUG-CC-PVTZ-JKFIT
  @DF-RHF Final Energy:   -76.04861979512928
    Total Energy =                        -76.0486197951292837
  //            Monomer B HF           //
    Molecular point group: c1

    Geometry (in Angstrom), charge = -1, multiplicity = 1:

       Center              X                  Y                   Z               Mass
    ------------   -----------------  -----------------  -----------------  -----------------
      Gh(O)           0.000000000000     0.000000000000     0.000000000000    15.994914619570
      Gh(H)          -0.199018000000     0.870919000000     0.344710000000     1.007825032230
      Gh(H)           0.516706000000     0.238886000000    -0.894961000000     1.007825032230
         F            2.426389000000     0.000000000000     0.000000000000    18.998403162730

  Charge       = -1
  Multiplicity = 1
  Basis Set: AUG-CC-PVTZ
    Blend: AUG-CC-PVTZ
  Basis Set: (AUG-CC-PVTZ AUX)
    Blend: AUG-CC-PVTZ-JKFIT

    Orbital Energies [Eh]
    ---------------------

    Doubly Occupied:

       1A    -25.833741     2A     -1.076030     3A     -0.181015
       4A     -0.180962     5A     -0.180945

  @DF-RHF Final Energy:   -99.45087226459009

   => Energetics <=

    Nuclear Repulsion Energy =              0.0000000000000000
    One-Electron Energy =                -143.9963585874515672
    Two-Electron Energy =                  44.5454863228614784
    Total Energy =                        -99.4508722645900889
 Dipole X            :        -45.8525219           41.2668962           -4.5856257
 Dipole Y            :         -0.0003566            0.0000000           -0.0003566
 Dipole Z            :         -0.0001235            0.0000000           -0.0001235
 Magnitude           :                                                    4.5856257

    SAPT Results
  --------------------------------------------------------------------------------------------------------
    Electrostatics                -13.61608798 [mEh]      -8.54422420 [kcal/mol]     -35.74903406 [kJ/mol]
      Elst10,r                     -9.06993031 [mEh]      -5.69146719 [kcal/mol]     -23.81309874 [kJ/mol]
      Elst12,r                     -4.54615767 [mEh]      -2.85275701 [kcal/mol]     -11.93593532 [kJ/mol]

    Exchange                       34.77358094 [mEh]      21.82075148 [kcal/mol]      91.29802419 [kJ/mol]
      Exch10                       26.95246298 [mEh]      16.91292586 [kcal/mol]      70.76368181 [kJ/mol]
      Exch10(S^2)                  26.69176786 [mEh]      16.74933720 [kcal/mol]      70.07922687 [kJ/mol]
      Exch11(S^2)                  -0.43103591 [mEh]      -0.27047912 [kcal/mol]      -1.13168464 [kJ/mol]
      Exch12(S^2)                   8.25215387 [mEh]       5.17830473 [kcal/mol]      21.66602701 [kJ/mol]

    Induction                     -12.73946313 [mEh]      -7.99413380 [kcal/mol]     -33.44745583 [kJ/mol]
      Ind20,r                     -20.80093671 [mEh]     -13.05278485 [kcal/mol]     -54.61285181 [kJ/mol]
      Ind22                        -6.47171421 [mEh]      -4.06106198 [kcal/mol]     -16.99148332 [kJ/mol]
      Exch-Ind20,r                 12.70374038 [mEh]       7.97171744 [kcal/mol]      33.35366577 [kJ/mol]
      Exch-Ind22                    3.95246514 [mEh]       2.48020932 [kcal/mol]      10.37719578 [kJ/mol]
      delta HF,r (2)               -2.12301772 [mEh]      -1.33221373 [kcal/mol]      -5.57398226 [kJ/mol]

    Dispersion                     -8.01356176 [mEh]      -5.02858593 [kcal/mol]     -21.03960351 [kJ/mol]
      Disp20                       -8.27516651 [mEh]      -5.19274538 [kcal/mol]     -21.72644669 [kJ/mol]
      Disp21                        0.31905816 [mEh]       0.20021202 [kcal/mol]       0.83768709 [kJ/mol]
      Disp22 (SDQ)                 -1.04982737 [mEh]      -0.65877662 [kcal/mol]      -2.75632139 [kJ/mol]
      Disp22 (T)                   -1.43646997 [mEh]      -0.90139852 [kcal/mol]      -3.77145140 [kJ/mol]
      Est. Disp22 (T)              -1.73751594 [mEh]      -1.09030772 [kcal/mol]      -4.56184748 [kJ/mol]
      Exch-Disp20                   2.72988990 [mEh]       1.71303178 [kcal/mol]       7.16732496 [kJ/mol]

  Total HF                          7.66231862 [mEh]       4.80817753 [kcal/mol]      20.11741477 [kJ/mol]
  Total SAPT0                       2.11704201 [mEh]       1.32846392 [kcal/mol]       5.55829304 [kJ/mol]
  Total SAPT2                       2.87275323 [mEh]       1.80267986 [kcal/mol]       7.54241255 [kJ/mol]
  Total SAPT2+                      0.40446807 [mEh]       0.25380755 [kcal/mol]       1.06193077 [kJ/mol]

  Special recipe for scaled SAPT0 (see Manual):
    Electrostatics sSAPT0          -9.06993031 [mEh]      -5.69146719 [kcal/mol]     -23.81309874 [kJ/mol]
    Exchange sSAPT0                26.95246298 [mEh]      16.91292586 [kcal/mol]      70.76368181 [kJ/mol]
    Induction sSAPT0               -9.84433924 [mEh]      -6.17741614 [kcal/mol]     -25.84630912 [kJ/mol]
    Dispersion sSAPT0              -5.46450537 [mEh]      -3.42902889 [kcal/mol]     -14.34705687 [kJ/mol]
  Total sSAPT0                      2.57368807 [mEh]       1.61501364 [kcal/mol]       6.75721708 [kJ/mol]
  --------------------------------------------------------------------------------------------------------

*** Psi4 exiting successfully. Buy a developer a beer!
