                               Psi4 1.9 release

  ==> Input File <==

--------------------------------------------------------------------------
MEMORY 60 GB

molecule dimer {
0 1
O      0.000000     0.000000     0.000000
H      0.369112     0.609884    -0.639321
H      0.249106    -0.936372    -0.431465
--
-1 1
F      2.426389     0.000000     0.000000

units ang
no_reorient
no_com
symmetry c1
}

set {
basis        aug-cc-pVTZ
scf_type     df
}

energy("sapt2+")
--------------------------------------------------------------------------

  //              Dimer HF             //
    Molecular point group: c1
  Charge       = -1
  Multiplicity = 1
  Basis Set: AUG-CC-PVTZ
    Blend: AUG-CC-PVTZ
  Basis Set: (AUG-CC-PVTZ AUX)
    Blend: AUG-CC-PVTZ-JKFIT
  @DF-RHF Final Energy:  -175.49572469151337
    Total Energy =                       -175.4957246915133453
 Dipole X            :        -46.3218370           42.4351589           -3.8866781
 Dipole Y            :          0.4464868           -0.6169729           -0.1704861
 Dipole Z            :          1.4238840           -2.0234923           -0.5996083
 Magnitude           :                                                    3.9363514
  //            Monomer A HF           //
    Molecular point group: c1
  Multiplicity = 1
  Basis Set: AUG-CC-PVTZ
    Blend: AUG-CC-PVTZ
  Basis Set: (AUG-CC-PVTZ AUX)
    Blend: AUG-CC-PVTZ-JKFIT
  @DF-RHF Final Energy:   -76.04861128322018
    Total Energy =                        -76.0486112832201826
  //            Monomer B HF           //
    Molecular point group: c1

    Geometry (in Angstrom), charge = -1, multiplicity = 1:

       Center              X                  Y                   Z               Mass
    ------------   -----------------  -----------------  -----------------  -----------------
      Gh(O)           0.000000000000     0.000000000000     0.000000000000    15.994914619570
      Gh(H)           0.369112000000     0.609884000000    -0.639321000000     1.007825032230
      Gh(H)           0.249106000000    -0.936372000000    -0.431465000000     1.007825032230
         F            2.426389000000     0.000000000000     0.000000000000    18.998403162730

  Charge       = -1
  Multiplicity = 1
  Basis Set: AUG-CC-PVTZ
    Blend: AUG-CC-PVTZ
  Basis Set: (AUG-CC-PVTZ AUX)
    Blend: AUG-CC-PVTZ-JKFIT

    Orbital Energies [Eh]
    ---------------------

    Doubly Occupied:

       1A    -25.833751     2A     -1.076037     3A     -0.181018
       4A     -0.180969     5A     -0.180951

  @DF-RHF Final Energy:   -99.45087044601908

   => Energetics <=

    Nuclear Repulsion Energy =              0.0000000000000000
    One-Electron Energy =                -143.9962892559321119
    Two-Electron Energy =                  44.5454188099130377
    Total Energy =                        -99.4508704460190813
 Dipole X            :        -45.8528245           41.2668962           -4.5859283
 Dipole Y            :          0.0000387            0.0000000            0.0000387
 Dipole Z            :          0.0001216            0.0000000            0.0001216
 Magnitude           :                                                    4.5859283

    SAPT Results
  --------------------------------------------------------------------------------------------------------
    Electrostatics                -17.93694030 [mEh]     -11.25559997 [kcal/mol]     -47.09343027 [kJ/mol]
      Elst10,r                    -13.78727097 [mEh]      -8.65164315 [kcal/mol]     -36.19847494 [kJ/mol]
      Elst12,r                     -4.14966933 [mEh]      -2.60395682 [kcal/mol]     -10.89495533 [kJ/mol]

    Exchange                       34.91760608 [mEh]      21.91112862 [kcal/mol]      91.67616214 [kJ/mol]
      Exch10                       26.73063707 [mEh]      16.77372800 [kcal/mol]      70.18127795 [kJ/mol]
      Exch10(S^2)                  26.49594065 [mEh]      16.62645377 [kcal/mol]      69.56508258 [kJ/mol]
      Exch11(S^2)                  -0.36936409 [mEh]      -0.23177947 [kcal/mol]      -0.96976529 [kJ/mol]
      Exch12(S^2)                   8.55633311 [mEh]       5.36918009 [kcal/mol]      22.46464948 [kJ/mol]

    Induction                     -11.64292367 [mEh]      -7.30604491 [kcal/mol]     -30.56849188 [kJ/mol]
      Ind20,r                     -20.67757777 [mEh]     -12.97537594 [kcal/mol]     -54.28897295 [kJ/mol]
      Ind22                        -6.79461616 [mEh]      -4.26368601 [kcal/mol]     -17.83926227 [kJ/mol]
      Exch-Ind20,r                 13.20159398 [mEh]       8.28412529 [kcal/mol]      34.66078021 [kJ/mol]
      Exch-Ind22                    4.33802086 [mEh]       2.72214919 [kcal/mol]      11.38947221 [kJ/mol]
      delta HF,r (2)               -1.71034458 [mEh]      -1.07325743 [kcal/mol]      -4.49050909 [kJ/mol]

    Dispersion                     -8.12205662 [mEh]      -5.09666748 [kcal/mol]     -21.32445672 [kJ/mol]
      Disp20                       -8.30615281 [mEh]      -5.21218958 [kcal/mol]     -21.80780119 [kJ/mol]
      Disp21                        0.29901558 [mEh]       0.18763511 [kcal/mol]       0.78506529 [kJ/mol]
      Disp22 (SDQ)                 -1.11410182 [mEh]      -0.69910945 [kcal/mol]      -2.92507394 [kJ/mol]
      Disp22 (T)                   -1.48250171 [mEh]      -0.93028387 [kcal/mol]      -3.89230772 [kJ/mol]
      Est. Disp22 (T)              -1.78039740 [mEh]      -1.11721623 [kcal/mol]      -4.67443272 [kJ/mol]
      Exch-Disp20                   2.77957983 [mEh]       1.74421268 [kcal/mol]       7.29778584 [kJ/mol]

  Total HF                          3.75703773 [mEh]       2.35757677 [kcal/mol]       9.86410119 [kJ/mol]
  Total SAPT0                      -1.76953525 [mEh]      -1.11040013 [kcal/mol]      -4.64591416 [kJ/mol]
  Total SAPT2                      -0.18883086 [mEh]      -0.11849315 [kcal/mol]      -0.49577536 [kJ/mol]
  Total SAPT2+                     -2.78431451 [mEh]      -1.74718373 [kcal/mol]      -7.31021673 [kJ/mol]

  Special recipe for scaled SAPT0 (see Manual):
    Electrostatics sSAPT0         -13.78727097 [mEh]      -8.65164315 [kcal/mol]     -36.19847494 [kJ/mol]
    Exchange sSAPT0                26.73063707 [mEh]      16.77372800 [kcal/mol]      70.18127795 [kJ/mol]
    Induction sSAPT0               -8.83239951 [mEh]      -5.54241437 [kcal/mol]     -23.18946173 [kJ/mol]
    Dispersion sSAPT0              -5.45205368 [mEh]      -3.42121533 [kcal/mol]     -14.31436496 [kJ/mol]
  Total sSAPT0                     -1.34108709 [mEh]      -0.84154485 [kcal/mol]      -3.52102367 [kJ/mol]
  --------------------------------------------------------------------------------------------------------

*** Psi4 exiting successfully. Buy a developer a beer!
