                               Psi4 1.9 release

  ==> Input File <==

--------------------------------------------------------------------------
MEMORY 60 GB

molecule dimer {
0 1
O      0.000000     0.000000     0.000000
H      0.045375     0.953257    -0.078592
H      0.507202    -0.309825    -0.878500
--
-1 1
F      2.426389     0.000000     0.000000

units ang
no_reorient
no_com
symmetry c1
}

set {
basis        aug-cc-pVTZ
scf_type     df
}

energy("sapt2+")
--------------------------------------------------------------------------

  //              Dimer HF             //
    Molecular point group: c1
  Charge       = -1
  Multiplicity = 1
  Basis Set: AUG-CC-PVTZ
    Blend: AUG-CC-PVTZ
  Basis Set: (AUG-CC-PVTZ AUX)
    Blend: AUG-CC-PVTZ-JKFIT
  @DF-RHF Final Energy:  -175.49538427525155
    Total Energy =                       -175.4953842752515243
 Dipole X            :        -46.2219372           42.3111153           -3.9108218
 Dipole Y            :         -0.8354753            1.2159103            0.3804350
 Dipole Z            :          1.2796244           -1.8086418           -0.5290173
 Magnitude           :                                                    3.9647342
  //            Monomer A HF           //
    Molecular point group: c1
  Multiplicity = 1
  Basis Set: AUG-CC-PVTZ
    Blend: AUG-CC-PVTZ
  Basis Set: (AUG-CC-PVTZ AUX)
    Blend: AUG-CC-PVTZ-JKFIT
  @DF-RHF Final Energy:   -76.04861571291271
    Total Energy =                        -76.0486157129126923
  //            Monomer B HF           //
    Molecular point group: c1

    Geometry (in Angstrom), charge = -1, multiplicity = 1:

       Center              X                  Y                   Z               Mass
    ------------   -----------------  -----------------  -----------------  -----------------
      Gh(O)           0.000000000000     0.000000000000     0.000000000000    15.994914619570
      Gh(H)           0.045375000000     0.953257000000    -0.078592000000     1.007825032230
      Gh(H)           0.507202000000    -0.309825000000    -0.878500000000     1.007825032230
         F            2.426389000000     0.000000000000     0.000000000000    18.998403162730

  Charge       = -1
  Multiplicity = 1
  Basis Set: AUG-CC-PVTZ
    Blend: AUG-CC-PVTZ
  Basis Set: (AUG-CC-PVTZ AUX)
    Blend: AUG-CC-PVTZ-JKFIT

    Orbital Energies [Eh]
    ---------------------

    Doubly Occupied:

       1A    -25.833747     2A     -1.076035     3A     -0.181019
       4A     -0.180966     5A     -0.180948

  @DF-RHF Final Energy:   -99.45087315237771

   => Energetics <=

    Nuclear Repulsion Energy =              0.0000000000000000
    One-Electron Energy =                -143.9963166858290151
    Two-Electron Energy =                  44.5454435334512908
    Total Energy =                        -99.4508731523777243
 Dipole X            :        -45.8527239           41.2668962           -4.5858277
 Dipole Y            :         -0.0002215            0.0000000           -0.0002215
 Dipole Z            :          0.0001071            0.0000000            0.0001071
 Magnitude           :                                                    4.5858277

    SAPT Results
  --------------------------------------------------------------------------------------------------------
    Electrostatics                -17.95209222 [mEh]     -11.26510794 [kcal/mol]     -47.13321164 [kJ/mol]
      Elst10,r                    -13.66257325 [mEh]      -8.57339415 [kcal/mol]     -35.87108113 [kJ/mol]
      Elst12,r                     -4.28951897 [mEh]      -2.69171379 [kcal/mol]     -11.26213051 [kJ/mol]

    Exchange                       36.07295243 [mEh]      22.63611940 [kcal/mol]      94.70952356 [kJ/mol]
      Exch10                       27.83618907 [mEh]      17.46747236 [kcal/mol]      73.08390435 [kJ/mol]
      Exch10(S^2)                  27.56765461 [mEh]      17.29896443 [kcal/mol]      72.37886720 [kJ/mol]
      Exch11(S^2)                  -0.36025551 [mEh]      -0.22606374 [kcal/mol]      -0.94585070 [kJ/mol]
      Exch12(S^2)                   8.59701886 [mEh]       5.39471078 [kcal/mol]      22.57146991 [kJ/mol]

    Induction                     -12.61356273 [mEh]      -7.91513011 [kcal/mol]     -33.11690437 [kJ/mol]
      Ind20,r                     -21.25499090 [mEh]     -13.33770815 [kcal/mol]     -55.80497092 [kJ/mol]
      Ind22                        -6.75133192 [mEh]      -4.23652474 [kcal/mol]     -17.72561953 [kJ/mol]
      Exch-Ind20,r                 13.24411095 [mEh]       8.31080509 [kcal/mol]      34.77240851 [kJ/mol]
      Exch-Ind22                    4.20679498 [mEh]       2.63980371 [kcal/mol]      11.04493871 [kJ/mol]
      delta HF,r (2)               -2.05814583 [mEh]      -1.29150601 [kcal/mol]      -5.40366114 [kJ/mol]

    Dispersion                     -8.29940194 [mEh]      -5.20795335 [kcal/mol]     -21.79007680 [kJ/mol]
      Disp20                       -8.53123342 [mEh]      -5.35342979 [kcal/mol]     -22.39875025 [kJ/mol]
      Disp21                        0.31165844 [mEh]       0.19556863 [kcal/mol]       0.81825913 [kJ/mol]
      Disp22 (SDQ)                 -1.10418267 [mEh]      -0.69288509 [kcal/mol]      -2.89903121 [kJ/mol]
      Disp22 (T)                   -1.51095197 [mEh]      -0.94813668 [kcal/mol]      -3.96700386 [kJ/mol]
      Est. Disp22 (T)              -1.81361316 [mEh]      -1.13805944 [kcal/mol]      -4.76164069 [kJ/mol]
      Exch-Disp20                   2.83796886 [mEh]       1.78085235 [kcal/mol]       7.45108623 [kJ/mol]

  Total HF                          4.10459004 [mEh]       2.57566914 [kcal/mol]      10.77659966 [kJ/mol]
  Total SAPT0                      -1.58867451 [mEh]      -0.99690831 [kcal/mol]      -4.17106436 [kJ/mol]
  Total SAPT2                      -0.18596707 [mEh]      -0.11669610 [kcal/mol]      -0.48825648 [kJ/mol]
  Total SAPT2+                     -2.79210446 [mEh]      -1.75207200 [kcal/mol]      -7.33066926 [kJ/mol]

  Special recipe for scaled SAPT0 (see Manual):
    Electrostatics sSAPT0         -13.66257325 [mEh]      -8.57339415 [kcal/mol]     -35.87108113 [kJ/mol]
    Exchange sSAPT0                27.83618907 [mEh]      17.46747236 [kcal/mol]      73.08390435 [kJ/mol]
    Induction sSAPT0               -9.67821382 [mEh]      -6.07317086 [kcal/mol]     -25.41014689 [kJ/mol]
    Dispersion sSAPT0              -5.60952075 [mEh]      -3.52002742 [kcal/mol]     -14.72779471 [kJ/mol]
  Total sSAPT0                     -1.11411875 [mEh]      -0.69912007 [kcal/mol]      -2.92511838 [kJ/mol]
  --------------------------------------------------------------------------------------------------------

*** Psi4 exiting successfully. Buy a developer a beer!
