                               Psi4 1.9 release

  ==> Input File <==

--------------------------------------------------------------------------
MEMORY 60 GB

molecule dimer {
0 1
O      0.000000     0.000000     0.000000
H     -0.036997     0.955205     0.064081
H      0.490972    -0.112425    -0.850388
--
-1 1
Cl     3.070352     0.000000     0.000000

units ang
no_reorient
no_com
symmetry c1
}

set {
basis        aug-cc-pVTZ
scf_type     df
}

energy("sapt2+")
--------------------------------------------------------------------------

  //              Dimer HF             //
    Molecular point group: c1
  Charge       = -1
  Multiplicity = 1
  Basis Set: AUG-CC-PVTZ
    Blend: AUG-CC-PVTZ
  Basis Set: (AUG-CC-PVTZ AUX)
    Blend: AUG-CC-PVTZ-JKFIT
  @DF-RHF Final Energy:  -535.63048716694948
    Total Energy =                       -535.6304871669494787
 Dipole X            :       -104.8167696           99.4940030           -5.3227666
 Dipole Y            :         -1.1023122            1.5926234            0.4903112
 Dipole Z            :          1.0838126           -1.4859049           -0.4020923
 Magnitude           :                                                    5.3604036
  //            Monomer A HF           //
    Molecular point group: c1
  Multiplicity = 1
  Basis Set: AUG-CC-PVTZ
    Blend: AUG-CC-PVTZ
  Basis Set: (AUG-CC-PVTZ AUX)
    Blend: AUG-CC-PVTZ-JKFIT
  @DF-RHF Final Energy:   -76.05823302579864
    Total Energy =                        -76.0582330257986428
  //            Monomer B HF           //
    Molecular point group: c1

    Geometry (in Angstrom), charge = -1, multiplicity = 1:

       Center              X                  Y                   Z               Mass
    ------------   -----------------  -----------------  -----------------  -----------------
      Gh(O)           0.000000000000     0.000000000000     0.000000000000    15.994914619570
      Gh(H)          -0.036997000000     0.955205000000     0.064081000000     1.007825032230
      Gh(H)           0.490972000000    -0.112425000000    -0.850388000000     1.007825032230
         CL           3.070352000000     0.000000000000     0.000000000000    34.968852682000

  Charge       = -1
  Multiplicity = 1
  Basis Set: AUG-CC-PVTZ
    Blend: AUG-CC-PVTZ
  Basis Set: (AUG-CC-PVTZ AUX)
    Blend: AUG-CC-PVTZ-JKFIT

    Orbital Energies [Eh]
    ---------------------

    Doubly Occupied:

       1A   -104.506146     2A    -10.229784     3A     -7.695827
       4A     -7.695826     5A     -7.695807     6A     -0.733503
       7A     -0.150338     8A     -0.150327     9A     -0.150326

  @DF-RHF Final Energy:  -459.57349579262240

   => Energetics <=

    Nuclear Repulsion Energy =              0.0000000000000000
    One-Electron Energy =                -641.1312228703096707
    Two-Electron Energy =                 181.5577270776872751
    Total Energy =                       -459.5734957926223956
 Dipole X            :       -104.4381693           98.6361146           -5.8020547
 Dipole Y            :         -0.0000135            0.0000000           -0.0000135
 Dipole Z            :          0.0002177            0.0000000            0.0002177
 Magnitude           :                                                    5.8020547

    SAPT Results
  --------------------------------------------------------------------------------------------------------
    Electrostatics                 -9.38966102 [mEh]      -5.89210124 [kcal/mol]     -24.65255160 [kJ/mol]
      Elst10,r                     -8.38663421 [mEh]      -5.26269242 [kcal/mol]     -22.01910508 [kJ/mol]
      Elst12,r                     -1.00302681 [mEh]      -0.62940883 [kcal/mol]      -2.63344653 [kJ/mol]

    Exchange                       15.78681242 [mEh]       9.90637435 [kcal/mol]      41.44827030 [kJ/mol]
      Exch10                       13.82324058 [mEh]       8.67421442 [kcal/mol]      36.29291313 [kJ/mol]
      Exch10(S^2)                  13.71622091 [mEh]       8.60705856 [kcal/mol]      36.01193303 [kJ/mol]
      Exch11(S^2)                   0.27794359 [mEh]       0.17441223 [kcal/mol]       0.72974078 [kJ/mol]
      Exch12(S^2)                   1.68562826 [mEh]       1.05774770 [kcal/mol]       4.42561638 [kJ/mol]

    Induction                      -4.74318675 [mEh]      -2.97639462 [kcal/mol]     -12.45323510 [kJ/mol]
      Ind20,r                     -12.03904202 [mEh]      -7.55461292 [kcal/mol]     -31.60850046 [kJ/mol]
      Ind22                        -1.99408065 [mEh]      -1.25130450 [kcal/mol]      -5.23545804 [kJ/mol]
      Exch-Ind20,r                  8.72915267 [mEh]       5.47762600 [kcal/mol]      22.91838718 [kJ/mol]
      Exch-Ind22                    1.44584880 [mEh]       0.90728382 [kcal/mol]       3.79607551 [kJ/mol]
      delta HF,r (2)               -0.88506555 [mEh]      -0.55538702 [kcal/mol]      -2.32373928 [kJ/mol]

    Dispersion                     -5.20420096 [mEh]      -3.26568541 [kcal/mol]     -13.66362775 [kJ/mol]
      Disp20                       -6.10567981 [mEh]      -3.83137192 [kcal/mol]     -16.03046012 [kJ/mol]
      Disp21                        0.40172932 [mEh]       0.25208895 [kcal/mol]       1.05474017 [kJ/mol]
      Disp22 (SDQ)                 -0.06576171 [mEh]      -0.04126609 [kcal/mol]      -0.17265734 [kJ/mol]
      Disp22 (T)                   -0.92451979 [mEh]      -0.58014493 [kcal/mol]      -2.42732637 [kJ/mol]
      Est. Disp22 (T)              -1.10598714 [mEh]      -0.69401741 [kcal/mol]      -2.90376884 [kJ/mol]
      Exch-Disp20                   1.67149838 [mEh]       1.04888107 [kcal/mol]       4.38851839 [kJ/mol]

  Total HF                          1.24165147 [mEh]       0.77914806 [kcal/mol]       3.25995549 [kJ/mol]
  Total SAPT0                      -3.19252996 [mEh]      -2.00334279 [kcal/mol]      -8.38198625 [kJ/mol]
  Total SAPT2                      -2.78021678 [mEh]      -1.74461237 [kcal/mol]      -7.29945814 [kJ/mol]
  Total SAPT2+                     -3.55023631 [mEh]      -2.22780692 [kcal/mol]      -9.32114415 [kJ/mol]

  Special recipe for scaled SAPT0 (see Manual):
    Electrostatics sSAPT0          -8.38663421 [mEh]      -5.26269242 [kcal/mol]     -22.01910508 [kJ/mol]
    Exchange sSAPT0                13.82324058 [mEh]       8.67421442 [kcal/mol]      36.29291313 [kJ/mol]
    Induction sSAPT0               -3.98903106 [mEh]      -2.50315478 [kcal/mol]     -10.47319961 [kJ/mol]
    Dispersion sSAPT0              -4.39475018 [mEh]      -2.75774738 [kcal/mol]     -11.53841502 [kJ/mol]
  Total sSAPT0                     -2.94717488 [mEh]      -1.84938016 [kcal/mol]      -7.73780657 [kJ/mol]
  --------------------------------------------------------------------------------------------------------

*** Psi4 exiting successfully. Buy a developer a beer!
