                               Psi4 1.9 release

  ==> Input File <==

--------------------------------------------------------------------------
MEMORY 60 GB

molecule dimer {
0 1
O      0.000000     0.000000     0.000000
H     -0.270842     0.790235     0.469111
H      0.453300     0.393609    -0.785139
--
-1 1
Cl     3.070352     0.000000     0.000000

units ang
no_reorient
no_com
symmetry c1
}

set {
basis        aug-cc-pVTZ
scf_type     df
}

energy("sapt2+")
--------------------------------------------------------------------------

  //              Dimer HF             //
    Molecular point group: c1
  Charge       = -1
  Multiplicity = 1
  Basis Set: AUG-CC-PVTZ
    Blend: AUG-CC-PVTZ
  Basis Set: (AUG-CC-PVTZ AUX)
    Blend: AUG-CC-PVTZ-JKFIT
  @DF-RHF Final Energy:  -535.62696929870424
    Total Energy =                       -535.6269692987042390
 Dipole X            :       -104.5083885           98.9809103           -5.5274782
 Dipole Y            :         -1.5650558            2.2371409            0.6720852
 Dipole Z            :          0.4670743           -0.5972064           -0.1301321
 Magnitude           :                                                    5.5697081
  //            Monomer A HF           //
    Molecular point group: c1
  Multiplicity = 1
  Basis Set: AUG-CC-PVTZ
    Blend: AUG-CC-PVTZ
  Basis Set: (AUG-CC-PVTZ AUX)
    Blend: AUG-CC-PVTZ-JKFIT
  @DF-RHF Final Energy:   -76.05823549169325
    Total Energy =                        -76.0582354916932530
  //            Monomer B HF           //
    Molecular point group: c1

    Geometry (in Angstrom), charge = -1, multiplicity = 1:

       Center              X                  Y                   Z               Mass
    ------------   -----------------  -----------------  -----------------  -----------------
      Gh(O)           0.000000000000     0.000000000000     0.000000000000    15.994914619570
      Gh(H)          -0.270842000000     0.790235000000     0.469111000000     1.007825032230
      Gh(H)           0.453300000000     0.393609000000    -0.785139000000     1.007825032230
         CL           3.070352000000     0.000000000000     0.000000000000    34.968852682000

  Charge       = -1
  Multiplicity = 1
  Basis Set: AUG-CC-PVTZ
    Blend: AUG-CC-PVTZ
  Basis Set: (AUG-CC-PVTZ AUX)
    Blend: AUG-CC-PVTZ-JKFIT

    Orbital Energies [Eh]
    ---------------------

    Doubly Occupied:

       1A   -104.506135     2A    -10.229781     3A     -7.695824
       4A     -7.695823     5A     -7.695805     6A     -0.733504
       7A     -0.150338     8A     -0.150328     9A     -0.150326

  @DF-RHF Final Energy:  -459.57349484201876

   => Energetics <=

    Nuclear Repulsion Energy =              0.0000000000000000
    One-Electron Energy =                -641.1312612950540597
    Two-Electron Energy =                 181.5577664530353275
    Total Energy =                       -459.5734948420187038
 Dipole X            :       -104.4381153           98.6361146           -5.8020007
 Dipole Y            :         -0.0001609            0.0000000           -0.0001609
 Dipole Z            :          0.0001837            0.0000000            0.0001837
 Magnitude           :                                                    5.8020007

    SAPT Results
  --------------------------------------------------------------------------------------------------------
    Electrostatics                 -5.35846858 [mEh]      -3.36248980 [kcal/mol]     -14.06865731 [kJ/mol]
      Elst10,r                     -4.10824765 [mEh]      -2.57796432 [kcal/mol]     -10.78620273 [kJ/mol]
      Elst12,r                     -1.25022092 [mEh]      -0.78452547 [kcal/mol]      -3.28245458 [kJ/mol]

    Exchange                       14.77515451 [mEh]       9.27154943 [kcal/mol]      38.79216282 [kJ/mol]
      Exch10                       12.97644966 [mEh]       8.14284510 [kcal/mol]      34.06966388 [kJ/mol]
      Exch10(S^2)                  12.88177010 [mEh]       8.08343278 [kcal/mol]      33.82108275 [kJ/mol]
      Exch11(S^2)                   0.18745426 [mEh]       0.11762932 [kcal/mol]       0.49216109 [kJ/mol]
      Exch12(S^2)                   1.61125059 [mEh]       1.01107501 [kcal/mol]       4.23033785 [kJ/mol]

    Induction                      -4.63009436 [mEh]      -2.90542808 [kcal/mol]     -12.15631107 [kJ/mol]
      Ind20,r                     -11.43794931 [mEh]      -7.17742155 [kcal/mol]     -30.03033178 [kJ/mol]
      Ind22                        -1.84294424 [mEh]      -1.15646497 [kcal/mol]      -4.83864944 [kJ/mol]
      Exch-Ind20,r                  8.19248125 [mEh]       5.14085960 [kcal/mol]      21.50935656 [kJ/mol]
      Exch-Ind22                    1.32001688 [mEh]       0.82832310 [kcal/mol]       3.46570384 [kJ/mol]
      delta HF,r (2)               -0.86169894 [mEh]      -0.54072425 [kcal/mol]      -2.26239025 [kJ/mol]

    Dispersion                     -4.92116320 [mEh]      -3.08807653 [kcal/mol]     -12.92051221 [kJ/mol]
      Disp20                       -5.81190716 [mEh]      -3.64702680 [kcal/mol]     -15.25916014 [kJ/mol]
      Disp21                        0.40568739 [mEh]       0.25457268 [kcal/mol]       1.06513210 [kJ/mol]
      Disp22 (SDQ)                 -0.05450521 [mEh]      -0.03420253 [kcal/mol]      -0.14310340 [kJ/mol]
      Disp22 (T)                   -0.86907833 [mEh]      -0.54535488 [kcal/mol]      -2.28176483 [kJ/mol]
      Est. Disp22 (T)              -1.04385761 [mEh]      -0.65503054 [kcal/mol]      -2.74064779 [kJ/mol]
      Exch-Disp20                   1.58341939 [mEh]       0.99361067 [kcal/mol]       4.15726703 [kJ/mol]

  Total HF                          4.76103501 [mEh]       2.98759457 [kcal/mol]      12.50009569 [kJ/mol]
  Total SAPT0                       0.53254723 [mEh]       0.33417844 [kcal/mol]       1.39820257 [kJ/mol]
  Total SAPT2                       0.55810380 [mEh]       0.35021542 [kcal/mol]       1.46530133 [kJ/mol]
  Total SAPT2+                     -0.13457163 [mEh]      -0.08444497 [kcal/mol]      -0.35331776 [kJ/mol]

  Special recipe for scaled SAPT0 (see Manual):
    Electrostatics sSAPT0          -4.10824765 [mEh]      -2.57796432 [kcal/mol]     -10.78620273 [kJ/mol]
    Exchange sSAPT0                12.97644966 [mEh]       8.14284510 [kcal/mol]      34.06966388 [kJ/mol]
    Induction sSAPT0               -3.92519462 [mEh]      -2.46309681 [kcal/mol]     -10.30559705 [kJ/mol]
    Dispersion sSAPT0              -4.19331667 [mEh]      -2.63134594 [kcal/mol]     -11.00955140 [kJ/mol]
  Total sSAPT0                      0.74969072 [mEh]       0.47043803 [kcal/mol]       1.96831271 [kJ/mol]
  --------------------------------------------------------------------------------------------------------

*** Psi4 exiting successfully. Buy a developer a beer!
