                               Psi4 1.9 release

  ==> Input File <==

--------------------------------------------------------------------------
MEMORY 60 GB

molecule dimer {
0 1
O      0.000000     0.000000     0.000000
H     -0.363877     0.623110     0.630253
H      0.386918     0.614842    -0.670161
--
-1 1
Cl     3.070352     0.000000     0.000000

units ang
no_reorient
no_com
symmetry c1
}

set {
basis        aug-cc-pVTZ
scf_type     df
}

energy("sapt2+")
--------------------------------------------------------------------------

  //              Dimer HF             //
    Molecular point group: c1
  Charge       = -1
  Multiplicity = 1
  Basis Set: AUG-CC-PVTZ
    Blend: AUG-CC-PVTZ
  Basis Set: (AUG-CC-PVTZ AUX)
    Blend: AUG-CC-PVTZ-JKFIT
  @DF-RHF Final Energy:  -535.62453429724269
    Total Energy =                       -535.6245342972426897
 Dipole X            :       -104.3350539           98.6796558           -5.6553981
 Dipole Y            :         -1.6427144            2.3393902            0.6966758
 Dipole Z            :          0.0995567           -0.0754152            0.0241415
 Magnitude           :                                                    5.6981987
  //            Monomer A HF           //
    Molecular point group: c1
  Multiplicity = 1
  Basis Set: AUG-CC-PVTZ
    Blend: AUG-CC-PVTZ
  Basis Set: (AUG-CC-PVTZ AUX)
    Blend: AUG-CC-PVTZ-JKFIT
  @DF-RHF Final Energy:   -76.05823578629661
    Total Energy =                        -76.0582357862966063
  //            Monomer B HF           //
    Molecular point group: c1

    Geometry (in Angstrom), charge = -1, multiplicity = 1:

       Center              X                  Y                   Z               Mass
    ------------   -----------------  -----------------  -----------------  -----------------
      Gh(O)           0.000000000000     0.000000000000     0.000000000000    15.994914619570
      Gh(H)          -0.363877000000     0.623110000000     0.630253000000     1.007825032230
      Gh(H)           0.386918000000     0.614842000000    -0.670161000000     1.007825032230
         CL           3.070352000000     0.000000000000     0.000000000000    34.968852682000

  Charge       = -1
  Multiplicity = 1
  Basis Set: AUG-CC-PVTZ
    Blend: AUG-CC-PVTZ
  Basis Set: (AUG-CC-PVTZ AUX)
    Blend: AUG-CC-PVTZ-JKFIT

    Orbital Energies [Eh]
    ---------------------

    Doubly Occupied:

       1A   -104.506128     2A    -10.229780     3A     -7.695822
       4A     -7.695821     5A     -7.695803     6A     -0.733504
       7A     -0.150338     8A     -0.150328     9A     -0.150326

  @DF-RHF Final Energy:  -459.57349460647077

   => Energetics <=

    Nuclear Repulsion Energy =              0.0000000000000000
    One-Electron Energy =                -641.1312872181028979
    Two-Electron Energy =                 181.5577926116320668
    Total Energy =                       -459.5734946064708311
 Dipole X            :       -104.4380940           98.6361146           -5.8019794
 Dipole Y            :         -0.0001822            0.0000000           -0.0001822
 Dipole Z            :          0.0001093            0.0000000            0.0001093
 Magnitude           :                                                    5.8019794

    SAPT Results
  --------------------------------------------------------------------------------------------------------
    Electrostatics                 -2.57253730 [mEh]      -1.61429153 [kcal/mol]      -6.75419575 [kJ/mol]
      Elst10,r                     -1.17437745 [mEh]      -0.73693298 [kcal/mol]      -3.08332757 [kJ/mol]
      Elst12,r                     -1.39815985 [mEh]      -0.87735855 [kcal/mol]      -3.67086818 [kJ/mol]

    Exchange                       14.00229864 [mEh]       8.78657505 [kcal/mol]      36.76303003 [kJ/mol]
      Exch10                       12.30039428 [mEh]       7.71861394 [kcal/mol]      32.29468073 [kJ/mol]
      Exch10(S^2)                  12.21558769 [mEh]       7.66539700 [kcal/mol]      32.07202107 [kJ/mol]
      Exch11(S^2)                   0.12972386 [mEh]       0.08140295 [kcal/mol]       0.34058994 [kJ/mol]
      Exch12(S^2)                   1.57218051 [mEh]       0.98655816 [kcal/mol]       4.12775936 [kJ/mol]

    Induction                      -4.43166445 [mEh]      -2.78091143 [kcal/mol]     -11.63533341 [kJ/mol]
      Ind20,r                     -10.96728385 [mEh]      -6.88207452 [kcal/mol]     -28.79459979 [kJ/mol]
      Ind22                        -1.75674399 [mEh]      -1.10237350 [kcal/mol]      -4.61233072 [kJ/mol]
      Exch-Ind20,r                  7.83492106 [mEh]       4.91648719 [kcal/mol]      20.57058241 [kJ/mol]
      Exch-Ind22                    1.25500084 [mEh]       0.78752492 [kcal/mol]       3.29500426 [kJ/mol]
      delta HF,r (2)               -0.79755851 [mEh]      -0.50047552 [kcal/mol]      -2.09398958 [kJ/mol]

    Dispersion                     -4.71917113 [mEh]      -2.96132459 [kcal/mol]     -12.39018209 [kJ/mol]
      Disp20                       -5.59431869 [mEh]      -3.51048798 [kcal/mol]     -14.68788169 [kJ/mol]
      Disp21                        0.40798164 [mEh]       0.25601234 [kcal/mol]       1.07115564 [kJ/mol]
      Disp22 (SDQ)                 -0.05379074 [mEh]      -0.03375420 [kcal/mol]      -0.14122757 [kJ/mol]
      Disp22 (T)                   -0.83223101 [mEh]      -0.52223284 [kcal/mol]      -2.18502221 [kJ/mol]
      Est. Disp22 (T)              -1.00230424 [mEh]      -0.62895541 [kcal/mol]      -2.63154942 [kJ/mol]
      Exch-Disp20                   1.52326090 [mEh]       0.95586065 [kcal/mol]       3.99932095 [kJ/mol]

  Total HF                          7.19609552 [mEh]       4.51561812 [kcal/mol]      18.89334620 [kJ/mol]
  Total SAPT0                       3.12503774 [mEh]       1.96099079 [kcal/mol]       8.20478546 [kJ/mol]
  Total SAPT2                       2.92703911 [mEh]       1.83674477 [kcal/mol]       7.68494012 [kJ/mol]
  Total SAPT2+                      2.27892577 [mEh]       1.43004751 [kcal/mol]       5.98331878 [kJ/mol]

  Special recipe for scaled SAPT0 (see Manual):
    Electrostatics sSAPT0          -1.17437745 [mEh]      -0.73693298 [kcal/mol]      -3.08332757 [kJ/mol]
    Exchange sSAPT0                12.30039428 [mEh]       7.71861394 [kcal/mol]      32.29468073 [kJ/mol]
    Induction sSAPT0               -3.76560423 [mEh]      -2.36295233 [kcal/mol]      -9.88659254 [kJ/mol]
    Dispersion sSAPT0              -4.03911135 [mEh]      -2.53458064 [kcal/mol]     -10.60468539 [kJ/mol]
  Total sSAPT0                      3.32130125 [mEh]       2.08414800 [kcal/mol]       8.72007522 [kJ/mol]
  --------------------------------------------------------------------------------------------------------

*** Psi4 exiting successfully. Buy a developer a beer!
