                               Psi4 1.9 release

  ==> Input File <==

--------------------------------------------------------------------------
MEMORY 60 GB

molecule dimer {
0 1
O      0.000000     0.000000     0.000000
H      0.087876     0.941808    -0.152206
H      0.459693    -0.362740    -0.796212
--
-1 1
Cl     3.070352     0.000000     0.000000

units ang
no_reorient
no_com
symmetry c1
}

set {
basis        aug-cc-pVTZ
scf_type     df
}

energy("sapt2+")
--------------------------------------------------------------------------

  //              Dimer HF             //
    Molecular point group: c1
  Charge       = -1
  Multiplicity = 1
  Basis Set: AUG-CC-PVTZ
    Blend: AUG-CC-PVTZ
  Basis Set: (AUG-CC-PVTZ AUX)
    Blend: AUG-CC-PVTZ-JKFIT
  @DF-RHF Final Energy:  -535.63141238485377
    Total Energy =                       -535.6314123848537747
 Dipole X            :       -104.9306163           99.6708701           -5.2597462
 Dipole Y            :         -0.7524093            1.0942799            0.3418706
 Dipole Z            :          1.2917597           -1.7922503           -0.5004906
 Magnitude           :                                                    5.2945535
  //            Monomer A HF           //
    Molecular point group: c1
  Multiplicity = 1
  Basis Set: AUG-CC-PVTZ
    Blend: AUG-CC-PVTZ
  Basis Set: (AUG-CC-PVTZ AUX)
    Blend: AUG-CC-PVTZ-JKFIT
  @DF-RHF Final Energy:   -76.05823084009977
    Total Energy =                        -76.0582308400997817
  //            Monomer B HF           //
    Molecular point group: c1

    Geometry (in Angstrom), charge = -1, multiplicity = 1:

       Center              X                  Y                   Z               Mass
    ------------   -----------------  -----------------  -----------------  -----------------
      Gh(O)           0.000000000000     0.000000000000     0.000000000000    15.994914619570
      Gh(H)           0.087876000000     0.941808000000    -0.152206000000     1.007825032230
      Gh(H)           0.459693000000    -0.362740000000    -0.796212000000     1.007825032230
         CL           3.070352000000     0.000000000000     0.000000000000    34.968852682000

  Charge       = -1
  Multiplicity = 1
  Basis Set: AUG-CC-PVTZ
    Blend: AUG-CC-PVTZ
  Basis Set: (AUG-CC-PVTZ AUX)
    Blend: AUG-CC-PVTZ-JKFIT

    Orbital Energies [Eh]
    ---------------------

    Doubly Occupied:

       1A   -104.506152     2A    -10.229785     3A     -7.695829
       4A     -7.695827     5A     -7.695808     6A     -0.733503
       7A     -0.150337     8A     -0.150327     9A     -0.150326

  @DF-RHF Final Energy:  -459.57349637397220

   => Energetics <=

    Nuclear Repulsion Energy =              0.0000000000000000
    One-Electron Energy =                -641.1312025812908360
    Two-Electron Energy =                 181.5577062073186028
    Total Energy =                       -459.5734963739722616
 Dipole X            :       -104.4381593           98.6361146           -5.8020447
 Dipole Y            :          0.0000270            0.0000000            0.0000270
 Dipole Z            :          0.0001699            0.0000000            0.0001699
 Magnitude           :                                                    5.8020447

    SAPT Results
  --------------------------------------------------------------------------------------------------------
    Electrostatics                -10.41419220 [mEh]      -6.53500427 [kcal/mol]     -27.34245787 [kJ/mol]
      Elst10,r                     -9.49427949 [mEh]      -5.95775033 [kcal/mol]     -24.92722737 [kJ/mol]
      Elst12,r                     -0.91991271 [mEh]      -0.57725394 [kcal/mol]      -2.41523049 [kJ/mol]

    Exchange                       15.87924978 [mEh]       9.96437967 [kcal/mol]      41.69096455 [kJ/mol]
      Exch10                       13.87125331 [mEh]       8.70434286 [kcal/mol]      36.41897053 [kJ/mol]
      Exch10(S^2)                  13.76468219 [mEh]       8.63746848 [kcal/mol]      36.13916812 [kJ/mol]
      Exch11(S^2)                   0.29981843 [mEh]       0.18813891 [kcal/mol]       0.78717318 [kJ/mol]
      Exch12(S^2)                   1.70817804 [mEh]       1.07189790 [kcal/mol]       4.48482083 [kJ/mol]

    Induction                      -4.60845164 [mEh]      -2.89184706 [kcal/mol]     -12.09948812 [kJ/mol]
      Ind20,r                     -12.09202771 [mEh]      -7.58786194 [kcal/mol]     -31.74761437 [kJ/mol]
      Ind22                        -2.04072499 [mEh]      -1.28057426 [kcal/mol]      -5.35792272 [kJ/mol]
      Exch-Ind20,r                  8.85496246 [mEh]       5.55657283 [kcal/mol]      23.24870072 [kJ/mol]
      Exch-Ind22                    1.49441794 [mEh]       0.93776142 [kcal/mol]       3.92359377 [kJ/mol]
      delta HF,r (2)               -0.82507934 [mEh]      -0.51774510 [kcal/mol]      -2.16624552 [kJ/mol]

    Dispersion                     -5.25057289 [mEh]      -3.29478423 [kcal/mol]     -13.78537723 [kJ/mol]
      Disp20                       -6.14577784 [mEh]      -3.85653382 [kcal/mol]     -16.13573751 [kJ/mol]
      Disp21                        0.39904605 [mEh]       0.25040518 [kcal/mol]       1.04769526 [kJ/mol]
      Disp22 (SDQ)                 -0.07398062 [mEh]      -0.04642354 [kcal/mol]      -0.19423610 [kJ/mol]
      Disp22 (T)                   -0.93596425 [mEh]      -0.58732643 [kcal/mol]      -2.45737379 [kJ/mol]
      Est. Disp22 (T)              -1.11802622 [mEh]      -0.70157204 [kcal/mol]      -2.93537743 [kJ/mol]
      Exch-Disp20                   1.68816574 [mEh]       1.05934000 [kcal/mol]       4.43227855 [kJ/mol]

  Total HF                          0.31482922 [mEh]       0.19755832 [kcal/mol]       0.82658400 [kJ/mol]
  Total SAPT0                      -4.14278288 [mEh]      -2.59963551 [kcal/mol]     -10.87687496 [kJ/mol]
  Total SAPT2                      -3.60100617 [mEh]      -2.25966549 [kcal/mol]      -9.45444040 [kJ/mol]
  Total SAPT2+                     -4.39396696 [mEh]      -2.75725589 [kcal/mol]     -11.53635866 [kJ/mol]

  Special recipe for scaled SAPT0 (see Manual):
    Electrostatics sSAPT0          -9.49427949 [mEh]      -5.95775033 [kcal/mol]     -24.92722737 [kJ/mol]
    Exchange sSAPT0                13.87125331 [mEh]       8.70434286 [kcal/mol]      36.41897053 [kJ/mol]
    Induction sSAPT0               -3.85487318 [mEh]      -2.41896944 [kcal/mol]     -10.12096815 [kJ/mol]
    Dispersion sSAPT0              -4.41809658 [mEh]      -2.77239746 [kcal/mol]     -11.59971096 [kJ/mol]
  Total sSAPT0                     -3.89599595 [mEh]      -2.44477437 [kcal/mol]     -10.22893594 [kJ/mol]
  --------------------------------------------------------------------------------------------------------

*** Psi4 exiting successfully. Buy a developer a beer!
