                               Psi4 1.9 release

  ==> Input File <==

--------------------------------------------------------------------------
MEMORY 60 GB

molecule dimer {
0 1
O      0.000000     0.000000     0.000000
H     -0.432114     0.413522     0.748444
H      0.294167     0.794175    -0.509513
--
-1 1
Cl     3.070352     0.000000     0.000000

units ang
no_reorient
no_com
symmetry c1
}

set {
basis        aug-cc-pVTZ
scf_type     df
}

energy("sapt2+")
--------------------------------------------------------------------------

  //              Dimer HF             //
    Molecular point group: c1
  Charge       = -1
  Multiplicity = 1
  Basis Set: AUG-CC-PVTZ
    Blend: AUG-CC-PVTZ
  Basis Set: (AUG-CC-PVTZ AUX)
    Blend: AUG-CC-PVTZ-JKFIT
  @DF-RHF Final Energy:  -535.62192568680962
    Total Energy =                       -535.6219256868096181
 Dipole X            :       -104.1614950           98.3754326           -5.7860624
 Dipole Y            :         -1.6070749            2.2822166            0.6751417
 Dipole Z            :         -0.2735501            0.4515142            0.1779640
 Magnitude           :                                                    5.8280362
  //            Monomer A HF           //
    Molecular point group: c1
  Multiplicity = 1
  Basis Set: AUG-CC-PVTZ
    Blend: AUG-CC-PVTZ
  Basis Set: (AUG-CC-PVTZ AUX)
    Blend: AUG-CC-PVTZ-JKFIT
  @DF-RHF Final Energy:   -76.05823629155168
    Total Energy =                        -76.0582362915516796
  //            Monomer B HF           //
    Molecular point group: c1

    Geometry (in Angstrom), charge = -1, multiplicity = 1:

       Center              X                  Y                   Z               Mass
    ------------   -----------------  -----------------  -----------------  -----------------
      Gh(O)           0.000000000000     0.000000000000     0.000000000000    15.994914619570
      Gh(H)          -0.432114000000     0.413522000000     0.748444000000     1.007825032230
      Gh(H)           0.294167000000     0.794175000000    -0.509513000000     1.007825032230
         CL           3.070352000000     0.000000000000     0.000000000000    34.968852682000

  Charge       = -1
  Multiplicity = 1
  Basis Set: AUG-CC-PVTZ
    Blend: AUG-CC-PVTZ
  Basis Set: (AUG-CC-PVTZ AUX)
    Blend: AUG-CC-PVTZ-JKFIT

    Orbital Energies [Eh]
    ---------------------

    Doubly Occupied:

       1A   -104.506120     2A    -10.229778     3A     -7.695819
       4A     -7.695818     5A     -7.695801     6A     -0.733504
       7A     -0.150338     8A     -0.150328     9A     -0.150327

  @DF-RHF Final Energy:  -459.57349444316287

   => Energetics <=

    Nuclear Repulsion Energy =              0.0000000000000000
    One-Electron Energy =                -641.1313229344035562
    Two-Electron Energy =                 181.5578284912406559
    Total Energy =                       -459.5734944431628719
 Dipole X            :       -104.4380967           98.6361146           -5.8019821
 Dipole Y            :         -0.0001535            0.0000000           -0.0001535
 Dipole Z            :          0.0000340            0.0000000            0.0000340
 Magnitude           :                                                    5.8019821

    SAPT Results
  --------------------------------------------------------------------------------------------------------
    Electrostatics                  0.36933236 [mEh]       0.23175955 [kcal/mol]       0.96968197 [kJ/mol]
      Elst10,r                      1.91608932 [mEh]       1.20236420 [kcal/mol]       5.03069181 [kJ/mol]
      Elst12,r                     -1.54675696 [mEh]      -0.97060465 [kcal/mol]      -4.06100984 [kJ/mol]

    Exchange                       13.26535008 [mEh]       8.32413285 [kcal/mol]      34.82817184 [kJ/mol]
      Exch10                       11.65023015 [mEh]       7.31062979 [kcal/mol]      30.58767504 [kJ/mol]
      Exch10(S^2)                  11.57414903 [mEh]       7.26288817 [kcal/mol]      30.38792410 [kJ/mol]
      Exch11(S^2)                   0.07411578 [mEh]       0.04650836 [kcal/mol]       0.19459096 [kJ/mol]
      Exch12(S^2)                   1.54100415 [mEh]       0.96699471 [kcal/mol]       4.04590585 [kJ/mol]

    Induction                      -4.24403896 [mEh]      -2.66317465 [kcal/mol]     -11.14272275 [kJ/mol]
      Ind20,r                     -10.50592502 [mEh]      -6.59256748 [kcal/mol]     -27.58330233 [kJ/mol]
      Ind22                        -1.67744736 [mEh]      -1.05261411 [kcal/mol]      -4.40413745 [kJ/mol]
      Exch-Ind20,r                  7.48233203 [mEh]       4.69523424 [kcal/mol]      19.64486004 [kJ/mol]
      Exch-Ind22                    1.19467997 [mEh]       0.74967300 [kcal/mol]       3.13663182 [kJ/mol]
      delta HF,r (2)               -0.73767857 [mEh]      -0.46290029 [kcal/mol]      -1.93677483 [kJ/mol]

    Dispersion                     -4.52492388 [mEh]      -2.83943260 [kcal/mol]     -11.88018600 [kJ/mol]
      Disp20                       -5.38186174 [mEh]      -3.37716923 [kcal/mol]     -14.13007605 [kJ/mol]
      Disp21                        0.41116243 [mEh]       0.25800832 [kcal/mol]       1.07950681 [kJ/mol]
      Disp22 (SDQ)                 -0.05558302 [mEh]      -0.03487887 [kcal/mol]      -0.14593320 [kJ/mol]
      Disp22 (T)                   -0.80264159 [mEh]      -0.50366520 [kcal/mol]      -2.10733521 [kJ/mol]
      Est. Disp22 (T)              -0.96503298 [mEh]      -0.60556734 [kcal/mol]      -2.53369373 [kJ/mol]
      Exch-Disp20                   1.46639143 [mEh]       0.92017451 [kcal/mol]       3.85001017 [kJ/mol]

  Total HF                          9.80504790 [mEh]       6.15276045 [kcal/mol]      25.74314973 [kJ/mol]
  Total SAPT0                       5.88957760 [mEh]       3.69576574 [kcal/mol]      15.46308385 [kJ/mol]
  Total SAPT2                       5.47517317 [mEh]       3.43572304 [kcal/mol]      14.37506519 [kJ/mol]
  Total SAPT2+                      4.86571961 [mEh]       3.05328515 [kcal/mol]      12.77494507 [kJ/mol]

  Special recipe for scaled SAPT0 (see Manual):
    Electrostatics sSAPT0           1.91608932 [mEh]       1.20236420 [kcal/mol]       5.03069181 [kJ/mol]
    Exchange sSAPT0                11.65023015 [mEh]       7.31062979 [kcal/mol]      30.58767504 [kJ/mol]
    Induction sSAPT0               -3.61274721 [mEh]      -2.26703310 [kcal/mol]      -9.48526648 [kJ/mol]
    Dispersion sSAPT0              -3.88636243 [mEh]      -2.43872924 [kcal/mol]     -10.20364315 [kJ/mol]
  Total sSAPT0                      6.06720983 [mEh]       3.80723165 [kcal/mol]      15.92945722 [kJ/mol]
  --------------------------------------------------------------------------------------------------------

*** Psi4 exiting successfully. Buy a developer a beer!
