                               Psi4 1.9 release

  ==> Input File <==

--------------------------------------------------------------------------
MEMORY 60 GB

molecule dimer {
0 1
O      0.000000     0.000000     0.000000
H      0.395117     0.541683    -0.684363
H      0.196804    -0.906600    -0.340875
--
-1 1
Cl     3.070352     0.000000     0.000000

units ang
no_reorient
no_com
symmetry c1
}

set {
basis        aug-cc-pVTZ
scf_type     df
}

energy("sapt2+")
--------------------------------------------------------------------------

  //              Dimer HF             //
    Molecular point group: c1
  Charge       = -1
  Multiplicity = 1
  Basis Set: AUG-CC-PVTZ
    Blend: AUG-CC-PVTZ
  Basis Set: (AUG-CC-PVTZ AUX)
    Blend: AUG-CC-PVTZ-JKFIT
  @DF-RHF Final Energy:  -535.63176310108702
    Total Energy =                       -535.6317631010870173
 Dipole X            :       -104.9881156           99.7546832           -5.2334324
 Dipole Y            :          0.4802416           -0.6895932           -0.2093515
 Dipole Z            :          1.3865931           -1.9374190           -0.5508259
 Magnitude           :                                                    5.2665028
  //            Monomer A HF           //
    Molecular point group: c1
  Multiplicity = 1
  Basis Set: AUG-CC-PVTZ
    Blend: AUG-CC-PVTZ
  Basis Set: (AUG-CC-PVTZ AUX)
    Blend: AUG-CC-PVTZ-JKFIT
  @DF-RHF Final Energy:   -76.05822872375907
    Total Energy =                        -76.0582287237590577
  //            Monomer B HF           //
    Molecular point group: c1

    Geometry (in Angstrom), charge = -1, multiplicity = 1:

       Center              X                  Y                   Z               Mass
    ------------   -----------------  -----------------  -----------------  -----------------
      Gh(O)           0.000000000000     0.000000000000     0.000000000000    15.994914619570
      Gh(H)           0.395117000000     0.541683000000    -0.684363000000     1.007825032230
      Gh(H)           0.196804000000    -0.906600000000    -0.340875000000     1.007825032230
         CL           3.070352000000     0.000000000000     0.000000000000    34.968852682000

  Charge       = -1
  Multiplicity = 1
  Basis Set: AUG-CC-PVTZ
    Blend: AUG-CC-PVTZ
  Basis Set: (AUG-CC-PVTZ AUX)
    Blend: AUG-CC-PVTZ-JKFIT

    Orbital Energies [Eh]
    ---------------------

    Doubly Occupied:

       1A   -104.506156     2A    -10.229786     3A     -7.695831
       4A     -7.695828     5A     -7.695809     6A     -0.733502
       7A     -0.150337     8A     -0.150326     9A     -0.150326

  @DF-RHF Final Energy:  -459.57349666145529

   => Energetics <=

    Nuclear Repulsion Energy =              0.0000000000000000
    One-Electron Energy =                -641.1311876073087888
    Two-Electron Energy =                 181.5576909458534942
    Total Energy =                       -459.5734966614552945
 Dipole X            :       -104.4381392           98.6361146           -5.8020245
 Dipole Y            :         -0.0000226            0.0000000           -0.0000226
 Dipole Z            :          0.0001269            0.0000000            0.0001269
 Magnitude           :                                                    5.8020245

    SAPT Results
  --------------------------------------------------------------------------------------------------------
    Electrostatics                -10.72683990 [mEh]      -6.73119366 [kcal/mol]     -28.16331428 [kJ/mol]
      Elst10,r                     -9.85798037 [mEh]      -6.18597608 [kcal/mol]     -25.88212390 [kJ/mol]
      Elst12,r                     -0.86885953 [mEh]      -0.54521759 [kcal/mol]      -2.28119038 [kJ/mol]

    Exchange                       15.70808201 [mEh]       9.85697028 [kcal/mol]      41.24156364 [kJ/mol]
      Exch10                       13.69428617 [mEh]       8.59329431 [kcal/mol]      35.95434338 [kJ/mol]
      Exch10(S^2)                  13.59203933 [mEh]       8.52913345 [kcal/mol]      35.68589435 [kJ/mol]
      Exch11(S^2)                   0.29575126 [mEh]       0.18558672 [kcal/mol]       0.77649484 [kJ/mol]
      Exch12(S^2)                   1.71804458 [mEh]       1.07808925 [kcal/mol]       4.51072542 [kJ/mol]

    Induction                      -4.41013774 [mEh]      -2.76740321 [kcal/mol]     -11.57881503 [kJ/mol]
      Ind20,r                     -12.01130102 [mEh]      -7.53720518 [kcal/mol]     -31.53566649 [kJ/mol]
      Ind22                        -2.05892089 [mEh]      -1.29199236 [kcal/mol]      -5.40569604 [kJ/mol]
      Exch-Ind20,r                  8.88371534 [mEh]       5.57461554 [kcal/mol]      23.32419140 [kJ/mol]
      Exch-Ind22                    1.52280482 [mEh]       0.95557445 [kcal/mol]       3.99812350 [kJ/mol]
      delta HF,r (2)               -0.74643598 [mEh]      -0.46839565 [kcal/mol]      -1.95976740 [kJ/mol]

    Dispersion                     -5.22343765 [mEh]      -3.27775661 [kcal/mol]     -13.71413365 [kJ/mol]
      Disp20                       -6.10735513 [mEh]      -3.83242320 [kcal/mol]     -16.03485867 [kJ/mol]
      Disp21                        0.39551667 [mEh]       0.24819046 [kcal/mol]       1.03842889 [kJ/mol]
      Disp22 (SDQ)                 -0.08132001 [mEh]      -0.05102908 [kcal/mol]      -0.21350566 [kJ/mol]
      Disp22 (T)                   -0.93348009 [mEh]      -0.58576760 [kcal/mol]      -2.45085165 [kJ/mol]
      Est. Disp22 (T)              -1.11336366 [mEh]      -0.69864624 [kcal/mol]      -2.92313588 [kJ/mol]
      Exch-Disp20                   1.68308447 [mEh]       1.05615145 [kcal/mol]       4.41893767 [kJ/mol]

  Total HF                         -0.03771587 [mEh]      -0.02366707 [kcal/mol]      -0.09902301 [kJ/mol]
  Total SAPT0                      -4.46198653 [mEh]      -2.79993882 [kcal/mol]     -11.71494401 [kJ/mol]
  Total SAPT2                      -3.85316628 [mEh]      -2.41789835 [kcal/mol]     -10.11648668 [kJ/mol]
  Total SAPT2+                     -4.65233328 [mEh]      -2.91938321 [kcal/mol]     -12.21469933 [kJ/mol]

  Special recipe for scaled SAPT0 (see Manual):
    Electrostatics sSAPT0          -9.85798037 [mEh]      -6.18597608 [kcal/mol]     -25.88212390 [kJ/mol]
    Exchange sSAPT0                13.69428617 [mEh]       8.59329431 [kcal/mol]      35.95434338 [kJ/mol]
    Induction sSAPT0               -3.67202507 [mEh]      -2.30423052 [kcal/mol]      -9.64090050 [kJ/mol]
    Dispersion sSAPT0              -4.38600093 [mEh]      -2.75225714 [kcal/mol]     -11.51544385 [kJ/mol]
  Total sSAPT0                     -4.22172021 [mEh]      -2.64916943 [kcal/mol]     -11.08412488 [kJ/mol]
  --------------------------------------------------------------------------------------------------------

*** Psi4 exiting successfully. Buy a developer a beer!
