                               Psi4 1.9 release

  ==> Input File <==

--------------------------------------------------------------------------
MEMORY 60 GB

molecule dimer {
0 1
O      0.000000     0.000000     0.000000
H      0.311555     0.727754    -0.539629
H      0.307421    -0.773835    -0.532469
--
-1 1
Cl     3.070352     0.000000     0.000000

units ang
no_reorient
no_com
symmetry c1
}

set {
basis        aug-cc-pVTZ
scf_type     df
}

energy("sapt2+")
--------------------------------------------------------------------------

  //              Dimer HF             //
    Molecular point group: c1
  Charge       = -1
  Multiplicity = 1
  Basis Set: AUG-CC-PVTZ
    Blend: AUG-CC-PVTZ
  Basis Set: (AUG-CC-PVTZ AUX)
    Blend: AUG-CC-PVTZ-JKFIT
  @DF-RHF Final Energy:  -535.63196880031558
    Total Energy =                       -535.6319688003155761
 Dipole X            :       -105.0223179           99.8058097           -5.2165082
 Dipole Y            :          0.0646496           -0.0870805           -0.0224308
 Dipole Z            :          1.4469864           -2.0259716           -0.5789852
 Magnitude           :                                                    5.2485889
  //            Monomer A HF           //
    Molecular point group: c1
  Multiplicity = 1
  Basis Set: AUG-CC-PVTZ
    Blend: AUG-CC-PVTZ
  Basis Set: (AUG-CC-PVTZ AUX)
    Blend: AUG-CC-PVTZ-JKFIT
  @DF-RHF Final Energy:   -76.05822795186349
    Total Energy =                        -76.0582279518634721
  //            Monomer B HF           //
    Molecular point group: c1

    Geometry (in Angstrom), charge = -1, multiplicity = 1:

       Center              X                  Y                   Z               Mass
    ------------   -----------------  -----------------  -----------------  -----------------
      Gh(O)           0.000000000000     0.000000000000     0.000000000000    15.994914619570
      Gh(H)           0.311555000000     0.727754000000    -0.539629000000     1.007825032230
      Gh(H)           0.307421000000    -0.773835000000    -0.532469000000     1.007825032230
         CL           3.070352000000     0.000000000000     0.000000000000    34.968852682000

  Charge       = -1
  Multiplicity = 1
  Basis Set: AUG-CC-PVTZ
    Blend: AUG-CC-PVTZ
  Basis Set: (AUG-CC-PVTZ AUX)
    Blend: AUG-CC-PVTZ-JKFIT

    Orbital Energies [Eh]
    ---------------------

    Doubly Occupied:

       1A   -104.506158     2A    -10.229787     3A     -7.695831
       4A     -7.695829     5A     -7.695810     6A     -0.733502
       7A     -0.150337     8A     -0.150326     9A     -0.150326

  @DF-RHF Final Energy:  -459.57349677188586

   => Energetics <=

    Nuclear Repulsion Energy =              0.0000000000000000
    One-Electron Energy =                -641.1311766129282432
    Two-Electron Energy =                 181.5576798410423862
    Total Energy =                       -459.5734967718858570
 Dipole X            :       -104.4381163           98.6361146           -5.8020017
 Dipole Y            :          0.0000004            0.0000000            0.0000004
 Dipole Z            :          0.0001056            0.0000000            0.0001056
 Magnitude           :                                                    5.8020017

    SAPT Results
  --------------------------------------------------------------------------------------------------------
    Electrostatics                -10.96924912 [mEh]      -6.88330774 [kcal/mol]     -28.79975960 [kJ/mol]
      Elst10,r                    -10.11759611 [mEh]      -6.34888741 [kcal/mol]     -26.56374492 [kJ/mol]
      Elst12,r                     -0.85165301 [mEh]      -0.53442033 [kcal/mol]      -2.23601468 [kJ/mol]

    Exchange                       15.73130346 [mEh]       9.87154195 [kcal/mol]      41.30253153 [kJ/mol]
      Exch10                       13.70358646 [mEh]       8.59913033 [kcal/mol]      35.97876129 [kJ/mol]
      Exch10(S^2)                  13.60152101 [mEh]       8.53508329 [kcal/mol]      35.71078850 [kJ/mol]
      Exch11(S^2)                   0.30497369 [mEh]       0.19137388 [kcal/mol]       0.80070831 [kJ/mol]
      Exch12(S^2)                   1.72274331 [mEh]       1.08103775 [kcal/mol]       4.52306193 [kJ/mol]

    Induction                      -4.36520812 [mEh]      -2.73920945 [kcal/mol]     -11.46085235 [kJ/mol]
      Ind20,r                     -12.01301341 [mEh]      -7.53827972 [kcal/mol]     -31.54016236 [kJ/mol]
      Ind22                        -2.07082877 [mEh]      -1.29946467 [kcal/mol]      -5.43696019 [kJ/mol]
      Exch-Ind20,r                  8.90862422 [mEh]       5.59024610 [kcal/mol]      23.38958967 [kJ/mol]
      Exch-Ind22                    1.53568757 [mEh]       0.96365850 [kcal/mol]       4.03194715 [kJ/mol]
      delta HF,r (2)               -0.72567773 [mEh]      -0.45536965 [kcal/mol]      -1.90526662 [kJ/mol]

    Dispersion                     -5.23791653 [mEh]      -3.28684224 [kcal/mol]     -13.75214795 [kJ/mol]
      Disp20                       -6.12121544 [mEh]      -3.84112068 [kcal/mol]     -16.07124892 [kJ/mol]
      Disp21                        0.39516489 [mEh]       0.24796971 [kcal/mol]       1.03750528 [kJ/mol]
      Disp22 (SDQ)                 -0.08337748 [mEh]      -0.05232016 [kcal/mol]      -0.21890754 [kJ/mol]
      Disp22 (T)                   -0.93857628 [mEh]      -0.58896551 [kcal/mol]      -2.46423169 [kJ/mol]
      Est. Disp22 (T)              -1.11665626 [mEh]      -0.70071238 [kcal/mol]      -2.93178060 [kJ/mol]
      Exch-Disp20                   1.68816776 [mEh]       1.05934126 [kcal/mol]       4.43228384 [kJ/mol]

  Total HF                         -0.24407657 [mEh]      -0.15316036 [kcal/mol]      -0.64082294 [kJ/mol]
  Total SAPT0                      -4.67712425 [mEh]      -2.93493978 [kcal/mol]     -12.27978802 [kJ/mol]
  Total SAPT2                      -4.03620147 [mEh]      -2.53275466 [kcal/mol]     -10.59704550 [kJ/mol]
  Total SAPT2+                     -4.84107032 [mEh]      -3.03781749 [kcal/mol]     -12.71022836 [kJ/mol]

  Special recipe for scaled SAPT0 (see Manual):
    Electrostatics sSAPT0         -10.11759611 [mEh]      -6.34888741 [kcal/mol]     -26.56374492 [kJ/mol]
    Exchange sSAPT0                13.70358646 [mEh]       8.59913033 [kcal/mol]      35.97876129 [kJ/mol]
    Induction sSAPT0               -3.62800801 [mEh]      -2.27660940 [kcal/mol]      -9.52533371 [kJ/mol]
    Dispersion sSAPT0              -4.39475789 [mEh]      -2.75775221 [kcal/mol]     -11.53843526 [kJ/mol]
  Total sSAPT0                     -4.43677555 [mEh]      -2.78411869 [kcal/mol]     -11.64875260 [kJ/mol]
  --------------------------------------------------------------------------------------------------------

*** Psi4 exiting successfully. Buy a developer a beer!
