                               Psi4 1.9 release

  ==> Input File <==

--------------------------------------------------------------------------
MEMORY 60 GB

molecule dimer {
0 1
O      0.000000     0.000000     0.000000
H     -0.159349     0.903506     0.276001
H      0.488791     0.145551    -0.846611
--
-1 1
Cl     3.070352     0.000000     0.000000

units ang
no_reorient
no_com
symmetry c1
}

set {
basis        aug-cc-pVTZ
scf_type     df
}

energy("sapt2+")
--------------------------------------------------------------------------

  //              Dimer HF             //
    Molecular point group: c1
  Charge       = -1
  Multiplicity = 1
  Basis Set: AUG-CC-PVTZ
    Blend: AUG-CC-PVTZ
  Basis Set: (AUG-CC-PVTZ AUX)
    Blend: AUG-CC-PVTZ-JKFIT
  @DF-RHF Final Energy:  -535.62900136203427
    Total Energy =                       -535.6290013620342734
 Dipole X            :       -104.6722518           99.2586698           -5.4135820
 Dipole Y            :         -1.3801327            1.9824304            0.6022978
 Dipole Z            :          0.8029045           -1.0782966           -0.2753921
 Magnitude           :                                                    5.4539411
  //            Monomer A HF           //
    Molecular point group: c1
  Multiplicity = 1
  Basis Set: AUG-CC-PVTZ
    Blend: AUG-CC-PVTZ
  Basis Set: (AUG-CC-PVTZ AUX)
    Blend: AUG-CC-PVTZ-JKFIT
  @DF-RHF Final Energy:   -76.05823472926716
    Total Energy =                        -76.0582347292671415
  //            Monomer B HF           //
    Molecular point group: c1

    Geometry (in Angstrom), charge = -1, multiplicity = 1:

       Center              X                  Y                   Z               Mass
    ------------   -----------------  -----------------  -----------------  -----------------
      Gh(O)           0.000000000000     0.000000000000     0.000000000000    15.994914619570
      Gh(H)          -0.159349000000     0.903506000000     0.276001000000     1.007825032230
      Gh(H)           0.488791000000     0.145551000000    -0.846611000000     1.007825032230
         CL           3.070352000000     0.000000000000     0.000000000000    34.968852682000

  Charge       = -1
  Multiplicity = 1
  Basis Set: AUG-CC-PVTZ
    Blend: AUG-CC-PVTZ
  Basis Set: (AUG-CC-PVTZ AUX)
    Blend: AUG-CC-PVTZ-JKFIT

    Orbital Energies [Eh]
    ---------------------

    Doubly Occupied:

       1A   -104.506141     2A    -10.229782     3A     -7.695826
       4A     -7.695825     5A     -7.695806     6A     -0.733503
       7A     -0.150338     8A     -0.150327     9A     -0.150326

  @DF-RHF Final Energy:  -459.57349522872607

   => Energetics <=

    Nuclear Repulsion Energy =              0.0000000000000000
    One-Electron Energy =                -641.1312413484847639
    Two-Electron Energy =                 181.5577461197586899
    Total Energy =                       -459.5734952287260739
 Dipole X            :       -104.4381481           98.6361146           -5.8020335
 Dipole Y            :         -0.0000914            0.0000000           -0.0000914
 Dipole Z            :          0.0002270            0.0000000            0.0002270
 Magnitude           :                                                    5.8020335

    SAPT Results
  --------------------------------------------------------------------------------------------------------
    Electrostatics                 -7.69538411 [mEh]      -4.82892643 [kcal/mol]     -20.20422820 [kJ/mol]
      Elst10,r                     -6.58019720 [mEh]      -4.12913608 [kcal/mol]     -17.27630537 [kJ/mol]
      Elst12,r                     -1.11518691 [mEh]      -0.69979035 [kcal/mol]      -2.92792283 [kJ/mol]

    Exchange                       15.41488870 [mEh]       9.67298870 [kcal/mol]      40.47178471 [kJ/mol]
      Exch10                       13.52389556 [mEh]       8.48637259 [kcal/mol]      35.50698290 [kJ/mol]
      Exch10(S^2)                  13.42094736 [mEh]       8.42177161 [kcal/mol]      35.23669243 [kJ/mol]
      Exch11(S^2)                   0.23939252 [mEh]       0.15022107 [kcal/mol]       0.62852497 [kJ/mol]
      Exch12(S^2)                   1.65160062 [mEh]       1.03639504 [kcal/mol]       4.33627684 [kJ/mol]

    Induction                      -4.75532082 [mEh]      -2.98400886 [kcal/mol]     -12.48509309 [kJ/mol]
      Ind20,r                     -11.82038999 [mEh]      -7.41740670 [kcal/mol]     -31.03442964 [kJ/mol]
      Ind22                        -1.92577947 [mEh]      -1.20844486 [kcal/mol]      -5.05613329 [kJ/mol]
      Exch-Ind20,r                  8.50454179 [mEh]       5.33668054 [kcal/mol]      22.32867140 [kJ/mol]
      Exch-Ind22                    1.38556105 [mEh]       0.86945269 [kcal/mol]       3.63779003 [kJ/mol]
      delta HF,r (2)               -0.89925420 [mEh]      -0.56429053 [kcal/mol]      -2.36099159 [kJ/mol]

    Dispersion                     -5.09298619 [mEh]      -3.19589708 [kcal/mol]     -13.37163340 [kJ/mol]
      Disp20                       -5.99314579 [mEh]      -3.76075576 [kcal/mol]     -15.73500209 [kJ/mol]
      Disp21                        0.40386434 [mEh]       0.25342870 [kcal/mol]       1.06034568 [kJ/mol]
      Disp22 (SDQ)                 -0.05865948 [mEh]      -0.03680938 [kcal/mol]      -0.15401044 [kJ/mol]
      Disp22 (T)                   -0.90390673 [mEh]      -0.56721004 [kcal/mol]      -2.37320680 [kJ/mol]
      Est. Disp22 (T)              -1.08090137 [mEh]      -0.67827585 [kcal/mol]      -2.83790615 [kJ/mol]
      Exch-Disp20                   1.63585610 [mEh]       1.02651520 [kcal/mol]       4.29493960 [kJ/mol]

  Total HF                          2.72859596 [mEh]       1.71221981 [kcal/mol]       7.16392770 [kJ/mol]
  Total SAPT0                      -1.62869372 [mEh]      -1.02202074 [kcal/mol]      -4.27613478 [kJ/mol]
  Total SAPT2                      -1.39310591 [mEh]      -0.87418716 [kcal/mol]      -3.65759906 [kJ/mol]
  Total SAPT2+                     -2.12880242 [mEh]      -1.33584368 [kcal/mol]      -5.58916997 [kJ/mol]

  Special recipe for scaled SAPT0 (see Manual):
    Electrostatics sSAPT0          -6.58019720 [mEh]      -4.12913608 [kcal/mol]     -17.27630537 [kJ/mol]
    Exchange sSAPT0                13.52389556 [mEh]       8.48637259 [kcal/mol]      35.50698290 [kJ/mol]
    Induction sSAPT0               -4.01788971 [mEh]      -2.52126386 [kcal/mol]     -10.54896798 [kJ/mol]
    Dispersion sSAPT0              -4.31935565 [mEh]      -2.71043659 [kcal/mol]     -11.34046669 [kJ/mol]
  Total sSAPT0                     -1.39354700 [mEh]      -0.87446394 [kcal/mol]      -3.65875714 [kJ/mol]
  --------------------------------------------------------------------------------------------------------

*** Psi4 exiting successfully. Buy a developer a beer!
