                               Psi4 1.9 release

  ==> Input File <==

--------------------------------------------------------------------------
MEMORY 60 GB

molecule dimer {
0 1
O      0.000000     0.000000     0.000000
H      0.206761     0.864229    -0.358120
H      0.397088    -0.588334    -0.687776
--
-1 1
Cl     3.070352     0.000000     0.000000

units ang
no_reorient
no_com
symmetry c1
}

set {
basis        aug-cc-pVTZ
scf_type     df
}

energy("sapt2+")
--------------------------------------------------------------------------

  //              Dimer HF             //
    Molecular point group: c1
  Charge       = -1
  Multiplicity = 1
  Basis Set: AUG-CC-PVTZ
    Blend: AUG-CC-PVTZ
  Basis Set: (AUG-CC-PVTZ AUX)
    Blend: AUG-CC-PVTZ-JKFIT
  @DF-RHF Final Energy:  -535.63186818979193
    Total Energy =                       -535.6318681897919305
 Dipole X            :       -105.0021224           99.7772238           -5.2248986
 Dipole Y            :         -0.3548609            0.5213660            0.1665051
 Dipole Z            :          1.4148826           -1.9764570           -0.5615744
 Magnitude           :                                                    5.2576283
  //            Monomer A HF           //
    Molecular point group: c1
  Multiplicity = 1
  Basis Set: AUG-CC-PVTZ
    Blend: AUG-CC-PVTZ
  Basis Set: (AUG-CC-PVTZ AUX)
    Blend: AUG-CC-PVTZ-JKFIT
  @DF-RHF Final Energy:   -76.05822879226737
    Total Energy =                        -76.0582287922673572
  //            Monomer B HF           //
    Molecular point group: c1

    Geometry (in Angstrom), charge = -1, multiplicity = 1:

       Center              X                  Y                   Z               Mass
    ------------   -----------------  -----------------  -----------------  -----------------
      Gh(O)           0.000000000000     0.000000000000     0.000000000000    15.994914619570
      Gh(H)           0.206761000000     0.864229000000    -0.358120000000     1.007825032230
      Gh(H)           0.397088000000    -0.588334000000    -0.687776000000     1.007825032230
         CL           3.070352000000     0.000000000000     0.000000000000    34.968852682000

  Charge       = -1
  Multiplicity = 1
  Basis Set: AUG-CC-PVTZ
    Blend: AUG-CC-PVTZ
  Basis Set: (AUG-CC-PVTZ AUX)
    Blend: AUG-CC-PVTZ-JKFIT

    Orbital Energies [Eh]
    ---------------------

    Doubly Occupied:

       1A   -104.506157     2A    -10.229787     3A     -7.695831
       4A     -7.695829     5A     -7.695809     6A     -0.733502
       7A     -0.150337     8A     -0.150326     9A     -0.150326

  @DF-RHF Final Energy:  -459.57349670356263

   => Energetics <=

    Nuclear Repulsion Energy =              0.0000000000000000
    One-Electron Energy =                -641.1311835643334689
    Two-Electron Energy =                 181.5576868607708434
    Total Energy =                       -459.5734967035626255
 Dipole X            :       -104.4381292           98.6361146           -5.8020145
 Dipole Y            :          0.0000236            0.0000000            0.0000236
 Dipole Z            :          0.0001227            0.0000000            0.0001227
 Magnitude           :                                                    5.8020145

    SAPT Results
  --------------------------------------------------------------------------------------------------------
    Electrostatics                -10.88844593 [mEh]      -6.83260297 [kcal/mol]     -28.58761084 [kJ/mol]
      Elst10,r                    -10.01950901 [mEh]      -6.28733683 [kcal/mol]     -26.30621728 [kJ/mol]
      Elst12,r                     -0.86893692 [mEh]      -0.54526615 [kcal/mol]      -2.28139356 [kJ/mol]

    Exchange                       15.81033724 [mEh]       9.92113640 [kcal/mol]      41.51003472 [kJ/mol]
      Exch10                       13.78348343 [mEh]       8.64926643 [kcal/mol]      36.18853076 [kJ/mol]
      Exch10(S^2)                  13.67955438 [mEh]       8.58404997 [kcal/mol]      35.91566508 [kJ/mol]
      Exch11(S^2)                   0.30724883 [mEh]       0.19280155 [kcal/mol]       0.80668168 [kJ/mol]
      Exch12(S^2)                   1.71960499 [mEh]       1.07906842 [kcal/mol]       4.51482228 [kJ/mol]

    Induction                      -4.44625630 [mEh]      -2.79006795 [kcal/mol]     -11.67364432 [kJ/mol]
      Ind20,r                     -12.05301058 [mEh]      -7.56337833 [kcal/mol]     -31.64517492 [kJ/mol]
      Ind22                        -2.06525984 [mEh]      -1.29597012 [kcal/mol]      -5.42233897 [kJ/mol]
      Exch-Ind20,r                  8.90393519 [mEh]       5.58730368 [kcal/mol]      23.37727861 [kJ/mol]
      Exch-Ind22                    1.52567192 [mEh]       0.95737358 [kcal/mol]       4.00565107 [kJ/mol]
      delta HF,r (2)               -0.75759299 [mEh]      -0.47539678 [kcal/mol]      -1.98906011 [kJ/mol]

    Dispersion                     -5.25219139 [mEh]      -3.29579985 [kcal/mol]     -13.78962659 [kJ/mol]
      Disp20                       -6.13940455 [mEh]      -3.85253452 [kcal/mol]     -16.11900441 [kJ/mol]
      Disp21                        0.39651778 [mEh]       0.24881866 [kcal/mol]       1.04105728 [kJ/mol]
      Disp22 (SDQ)                 -0.08061651 [mEh]      -0.05058763 [kcal/mol]      -0.21165862 [kJ/mol]
      Disp22 (T)                   -0.93956080 [mEh]      -0.58958330 [kcal/mol]      -2.46681653 [kJ/mol]
      Est. Disp22 (T)              -1.11980775 [mEh]      -0.70268997 [kcal/mol]      -2.94005484 [kJ/mol]
      Exch-Disp20                   1.69111964 [mEh]       1.06119360 [kcal/mol]       4.44003401 [kJ/mol]

  Total HF                         -0.14269396 [mEh]      -0.08954181 [kcal/mol]      -0.37464295 [kJ/mol]
  Total SAPT0                      -4.59097887 [mEh]      -2.88088273 [kcal/mol]     -12.05361335 [kJ/mol]
  Total SAPT2                      -3.97264989 [mEh]      -2.49287544 [kcal/mol]     -10.43019085 [kJ/mol]
  Total SAPT2+                     -4.77655637 [mEh]      -2.99733438 [kcal/mol]     -12.54084703 [kJ/mol]

  Special recipe for scaled SAPT0 (see Manual):
    Electrostatics sSAPT0         -10.01950901 [mEh]      -6.28733683 [kcal/mol]     -26.30621728 [kJ/mol]
    Exchange sSAPT0                13.78348343 [mEh]       8.64926643 [kcal/mol]      36.18853076 [kJ/mol]
    Induction sSAPT0               -3.70218238 [mEh]      -2.32315452 [kcal/mol]      -9.72007850 [kJ/mol]
    Dispersion sSAPT0              -4.40944699 [mEh]      -2.76696976 [kcal/mol]     -11.57700147 [kJ/mol]
  Total sSAPT0                     -4.34765495 [mEh]      -2.72819467 [kcal/mol]     -11.41476650 [kJ/mol]
  --------------------------------------------------------------------------------------------------------

*** Psi4 exiting successfully. Buy a developer a beer!
