                               Psi4 1.9 release

  ==> Input File <==

--------------------------------------------------------------------------
MEMORY 60 GB

molecule dimer {
0 1
O      0.000000     0.000000     0.000000
H      0.394172     0.544891    -0.682727
H      0.197122    -0.902246    -0.341425
--
-1 1
Br     3.212066     0.000000     0.000000

units ang
no_reorient
no_com
symmetry c1
}

set {
basis        aug-cc-pVTZ
scf_type     df
}

energy("sapt2+")
--------------------------------------------------------------------------

  //              Dimer HF             //
    Molecular point group: c1
  Charge       = -1
  Multiplicity = 1
  Basis Set: AUG-CC-PVTZ
    Blend: AUG-CC-PVTZ
  Basis Set: (AUG-CC-PVTZ AUX)
    Blend: AUG-CC-PVTZ-JKFIT
  @DF-RHF Final Energy: -2648.59186235353991
    Total Energy =                      -2648.5918623535399092
 Dipole X            :       -219.0928266          213.5647600           -5.5280666
 Dipole Y            :          0.4725335           -0.6753031           -0.2027695
 Dipole Z            :          1.4051223           -1.9353668           -0.5302445
 Magnitude           :                                                    5.5571391
  //            Monomer A HF           //
    Molecular point group: c1
  Multiplicity = 1
  Basis Set: AUG-CC-PVTZ
    Blend: AUG-CC-PVTZ
  Basis Set: (AUG-CC-PVTZ AUX)
    Blend: AUG-CC-PVTZ-JKFIT
  @DF-RHF Final Energy:   -76.05854272721669
    Total Energy =                        -76.0585427272166896
  //            Monomer B HF           //
    Molecular point group: c1

    Geometry (in Angstrom), charge = -1, multiplicity = 1:

       Center              X                  Y                   Z               Mass
    ------------   -----------------  -----------------  -----------------  -----------------
      Gh(O)           0.000000000000     0.000000000000     0.000000000000    15.994914619570
      Gh(H)           0.394172000000     0.544891000000    -0.682727000000     1.007825032230
      Gh(H)           0.197122000000    -0.902246000000    -0.341425000000     1.007825032230
         BR           3.212066000000     0.000000000000     0.000000000000    78.918337600000

  Charge       = -1
  Multiplicity = 1
  Basis Set: AUG-CC-PVTZ
    Blend: AUG-CC-PVTZ
  Basis Set: (AUG-CC-PVTZ AUX)
    Blend: AUG-CC-PVTZ-JKFIT

    Orbital Energies [Eh]
    ---------------------

    Doubly Occupied:

       1A   -489.720547     2A    -64.860583     3A    -58.215060
       4A    -58.215060     5A    -58.215058     6A     -9.532892
       7A     -7.140237     8A     -7.140236     9A     -7.140227
      10A     -2.881907    11A     -2.881906    12A     -2.881905
      13A     -2.881904    14A     -2.881892    15A     -0.685997
      16A     -0.139337    17A     -0.139335    18A     -0.139335

  @DF-RHF Final Energy: -2572.53367568075419

   => Energetics <=

    Nuclear Repulsion Energy =              0.0000000000000000
    One-Electron Energy =               -3593.6805127645766333
    Two-Electron Energy =                1021.1468370838225610
    Total Energy =                      -2572.5336756807541860
 Dipole X            :       -218.5172565          212.4473763           -6.0698802
 Dipole Y            :          0.0000307            0.0000000            0.0000307
 Dipole Z            :          0.0000158            0.0000000            0.0000158
 Magnitude           :                                                    6.0698802

    SAPT Results
  --------------------------------------------------------------------------------------------------------
    Electrostatics                -10.83495452 [mEh]      -6.79903661 [kcal/mol]     -28.44716918 [kJ/mol]
      Elst10,r                    -10.10279462 [mEh]      -6.33959934 [kcal/mol]     -26.52488362 [kJ/mol]
      Elst12,r                     -0.73215990 [mEh]      -0.45943728 [kcal/mol]      -1.92228556 [kJ/mol]

    Exchange                       15.68447666 [mEh]       9.84215770 [kcal/mol]      41.17958780 [kJ/mol]
      Exch10                       13.82524394 [mEh]       8.67547155 [kcal/mol]      36.29817297 [kJ/mol]
      Exch10(S^2)                  13.71379389 [mEh]       8.60553559 [kcal/mol]      36.00556090 [kJ/mol]
      Exch11(S^2)                   0.34653164 [mEh]       0.21745189 [kcal/mol]       0.90981869 [kJ/mol]
      Exch12(S^2)                   1.51270108 [mEh]       0.94923426 [kcal/mol]       3.97159614 [kJ/mol]

    Induction                      -3.81882421 [mEh]      -2.39634837 [kcal/mol]     -10.02632158 [kJ/mol]
      Ind20,r                     -13.05786023 [mEh]      -8.19393100 [kcal/mol]     -34.28340730 [kJ/mol]
      Ind22                        -2.26478554 [mEh]      -1.42117438 [kcal/mol]      -5.94619362 [kJ/mol]
      Exch-Ind20,r                 10.44933121 [mEh]       6.55705433 [kcal/mol]      27.43471532 [kJ/mol]
      Exch-Ind22                    1.81235622 [mEh]       1.13727070 [kcal/mol]       4.75834061 [kJ/mol]
      delta HF,r (2)               -0.75786588 [mEh]      -0.47556802 [kcal/mol]      -1.98977659 [kJ/mol]

    Dispersion                     -5.29840162 [mEh]      -3.32479721 [kcal/mol]     -13.91095153 [kJ/mol]
      Disp20                       -6.28311394 [mEh]      -3.94271352 [kcal/mol]     -16.49631337 [kJ/mol]
      Disp21                        0.44253612 [mEh]       0.27769561 [kcal/mol]       1.16187843 [kJ/mol]
      Disp22 (SDQ)                 -0.07553278 [mEh]      -0.04739754 [kcal/mol]      -0.19831130 [kJ/mol]
      Disp22 (T)                   -0.94167487 [mEh]      -0.59090990 [kcal/mol]      -2.47236703 [kJ/mol]
      Est. Disp22 (T)              -1.11921333 [mEh]      -0.70231697 [kcal/mol]      -2.93849420 [kJ/mol]
      Exch-Disp20                   1.73692231 [mEh]       1.08993521 [kcal/mol]       4.56028890 [kJ/mol]

  Total HF                          0.35605443 [mEh]       0.22342753 [kcal/mol]       0.93482078 [kJ/mol]
  Total SAPT0                      -4.19013719 [mEh]      -2.62935079 [kcal/mol]     -11.00120369 [kJ/mol]
  Total SAPT2                      -3.51549370 [mEh]      -2.20600560 [kcal/mol]      -9.22992743 [kJ/mol]
  Total SAPT2+                     -4.26770369 [mEh]      -2.67802450 [kcal/mol]     -11.20485449 [kJ/mol]

  Special recipe for scaled SAPT0 (see Manual):
    Electrostatics sSAPT0         -10.10279462 [mEh]      -6.33959934 [kcal/mol]     -26.52488362 [kJ/mol]
    Exchange sSAPT0                13.82524394 [mEh]       8.67547155 [kcal/mol]      36.29817297 [kJ/mol]
    Induction sSAPT0               -3.10955820 [mEh]      -1.95127723 [kcal/mol]      -8.16414392 [kJ/mol]
    Dispersion sSAPT0              -4.50349938 [mEh]      -2.82598853 [kcal/mol]     -11.82393600 [kJ/mol]
  Total sSAPT0                     -3.89060826 [mEh]      -2.44139354 [kcal/mol]     -10.21479057 [kJ/mol]
  --------------------------------------------------------------------------------------------------------

*** Psi4 exiting successfully. Buy a developer a beer!
