                               Psi4 1.9 release

  ==> Input File <==

--------------------------------------------------------------------------
MEMORY 60 GB

molecule dimer {
0 1
O      0.000000     0.000000     0.000000
H     -0.272445     0.788345     0.471889
H      0.451123     0.394244    -0.781368
--
-1 1
Br     3.212066     0.000000     0.000000

units ang
no_reorient
no_com
symmetry c1
}

set {
basis        aug-cc-pVTZ
scf_type     df
}

energy("sapt2+")
--------------------------------------------------------------------------

  //              Dimer HF             //
    Molecular point group: c1
  Charge       = -1
  Multiplicity = 1
  Basis Set: AUG-CC-PVTZ
    Blend: AUG-CC-PVTZ
  Basis Set: (AUG-CC-PVTZ AUX)
    Blend: AUG-CC-PVTZ-JKFIT
  @DF-RHF Final Energy: -2648.58740954466793
    Total Energy =                      -2648.5874095446679348
 Dipole X            :       -218.6170872          212.7850288           -5.8320584
 Dipole Y            :         -1.5790786            2.2347693            0.6556907
 Dipole Z            :          0.4719797           -0.5848306           -0.1128508
 Magnitude           :                                                    5.8698868
  //            Monomer A HF           //
    Molecular point group: c1
  Multiplicity = 1
  Basis Set: AUG-CC-PVTZ
    Blend: AUG-CC-PVTZ
  Basis Set: (AUG-CC-PVTZ AUX)
    Blend: AUG-CC-PVTZ-JKFIT
  @DF-RHF Final Energy:   -76.05854809783386
    Total Energy =                        -76.0585480978338779
  //            Monomer B HF           //
    Molecular point group: c1

    Geometry (in Angstrom), charge = -1, multiplicity = 1:

       Center              X                  Y                   Z               Mass
    ------------   -----------------  -----------------  -----------------  -----------------
      Gh(O)           0.000000000000     0.000000000000     0.000000000000    15.994914619570
      Gh(H)          -0.272445000000     0.788345000000     0.471889000000     1.007825032230
      Gh(H)           0.451123000000     0.394244000000    -0.781368000000     1.007825032230
         BR           3.212066000000     0.000000000000     0.000000000000    78.918337600000

  Charge       = -1
  Multiplicity = 1
  Basis Set: AUG-CC-PVTZ
    Blend: AUG-CC-PVTZ
  Basis Set: (AUG-CC-PVTZ AUX)
    Blend: AUG-CC-PVTZ-JKFIT

    Orbital Energies [Eh]
    ---------------------

    Doubly Occupied:

       1A   -489.720534     2A    -64.860575     3A    -58.215052
       4A    -58.215051     5A    -58.215049     6A     -9.532890
       7A     -7.140235     8A     -7.140234     9A     -7.140225
      10A     -2.881904    11A     -2.881903    12A     -2.881902
      13A     -2.881901    14A     -2.881890    15A     -0.685998
      16A     -0.139337    17A     -0.139336    18A     -0.139335

  @DF-RHF Final Energy: -2572.53367528268654

   => Energetics <=

    Nuclear Repulsion Energy =              0.0000000000000000
    One-Electron Energy =               -3593.6806457609109202
    Two-Electron Energy =                1021.1469704782240342
    Total Energy =                      -2572.5336752826869997
 Dipole X            :       -218.5172578          212.4473763           -6.0698815
 Dipole Y            :         -0.0000227            0.0000000           -0.0000227
 Dipole Z            :         -0.0000174            0.0000000           -0.0000174
 Magnitude           :                                                    6.0698815

    SAPT Results
  --------------------------------------------------------------------------------------------------------
    Electrostatics                 -5.72144585 [mEh]      -3.59026147 [kcal/mol]     -15.02165401 [kJ/mol]
      Elst10,r                     -4.65748451 [mEh]      -2.92261566 [kcal/mol]     -12.22822390 [kJ/mol]
      Elst12,r                     -1.06396134 [mEh]      -0.66764582 [kcal/mol]      -2.79343010 [kJ/mol]

    Exchange                       14.72959154 [mEh]       9.24295824 [kcal/mol]      38.67253726 [kJ/mol]
      Exch10                       13.06913384 [mEh]       8.20100530 [kcal/mol]      34.31300616 [kJ/mol]
      Exch10(S^2)                  12.96705756 [mEh]       8.13695147 [kcal/mol]      34.04500494 [kJ/mol]
      Exch11(S^2)                   0.23437166 [mEh]       0.14707044 [kcal/mol]       0.61534271 [kJ/mol]
      Exch12(S^2)                   1.42608604 [mEh]       0.89488250 [kcal/mol]       3.74418839 [kJ/mol]

    Induction                      -4.03442850 [mEh]      -2.53164211 [kcal/mol]     -10.59239057 [kJ/mol]
      Ind20,r                     -12.30243994 [mEh]      -7.71989761 [kcal/mol]     -32.30005161 [kJ/mol]
      Ind22                        -1.97652890 [mEh]      -1.24029061 [kcal/mol]      -5.18937590 [kJ/mol]
      Exch-Ind20,r                  9.58483224 [mEh]       6.01457303 [kcal/mol]      25.16497357 [kJ/mol]
      Exch-Ind22                    1.53991387 [mEh]       0.96631054 [kcal/mol]       4.04304330 [kJ/mol]
      delta HF,r (2)               -0.88020577 [mEh]      -0.55233746 [kcal/mol]      -2.31097993 [kJ/mol]

    Dispersion                     -4.98317348 [mEh]      -3.12698857 [kcal/mol]     -13.08332016 [kJ/mol]
      Disp20                       -5.97276854 [mEh]      -3.74796885 [kcal/mol]     -15.68150165 [kJ/mol]
      Disp21                        0.45392708 [mEh]       0.28484354 [kcal/mol]       1.19178539 [kJ/mol]
      Disp22 (SDQ)                 -0.05135714 [mEh]      -0.03222709 [kcal/mol]      -0.13483816 [kJ/mol]
      Disp22 (T)                   -0.88821402 [mEh]      -0.55736271 [kcal/mol]      -2.33200559 [kJ/mol]
      Est. Disp22 (T)              -1.04735977 [mEh]      -0.65722818 [kcal/mol]      -2.74984269 [kJ/mol]
      Exch-Disp20                   1.63438490 [mEh]       1.02559201 [kcal/mol]       4.29107695 [kJ/mol]

  Total HF                          4.81383585 [mEh]       3.02072760 [kcal/mol]      12.63872429 [kJ/mol]
  Total SAPT0                       0.47545221 [mEh]       0.29835076 [kcal/mol]       1.24829959 [kJ/mol]
  Total SAPT2                       0.63533355 [mEh]       0.39867782 [kcal/mol]       1.66806799 [kJ/mol]
  Total SAPT2+                     -0.00945628 [mEh]      -0.00593391 [kcal/mol]      -0.02482747 [kJ/mol]

  Special recipe for scaled SAPT0 (see Manual):
    Electrostatics sSAPT0          -4.65748451 [mEh]      -2.92261566 [kcal/mol]     -12.22822390 [kJ/mol]
    Exchange sSAPT0                13.06913384 [mEh]       8.20100530 [kcal/mol]      34.31300616 [kJ/mol]
    Induction sSAPT0               -3.36967243 [mEh]      -2.11450138 [kcal/mol]      -8.84707376 [kJ/mol]
    Dispersion sSAPT0              -4.29948153 [mEh]      -2.69796539 [kcal/mol]     -11.28828720 [kJ/mol]
  Total sSAPT0                      0.74249536 [mEh]       0.46592287 [kcal/mol]       1.94942130 [kJ/mol]
  --------------------------------------------------------------------------------------------------------

*** Psi4 exiting successfully. Buy a developer a beer!
