                               Psi4 1.9 release

  ==> Input File <==

--------------------------------------------------------------------------
MEMORY 60 GB

molecule dimer {
0 1
O      0.000000     0.000000     0.000000
H      0.086074     0.942740    -0.149084
H      0.458378    -0.359212    -0.793935
--
-1 1
Br     3.212066     0.000000     0.000000

units ang
no_reorient
no_com
symmetry c1
}

set {
basis        aug-cc-pVTZ
scf_type     df
}

energy("sapt2+")
--------------------------------------------------------------------------

  //              Dimer HF             //
    Molecular point group: c1
  Charge       = -1
  Multiplicity = 1
  Basis Set: AUG-CC-PVTZ
    Blend: AUG-CC-PVTZ
  Basis Set: (AUG-CC-PVTZ AUX)
    Blend: AUG-CC-PVTZ-JKFIT
  @DF-RHF Final Energy: -2648.59149485818580
    Total Energy =                      -2648.5914948581857971
 Dipole X            :       -219.0332995          213.4762415           -5.5570581
 Dipole Y            :         -0.7639133            1.1027081            0.3387948
 Dipole Z            :          1.3044775           -1.7820476           -0.4775702
 Magnitude           :                                                    5.5878215
  //            Monomer A HF           //
    Molecular point group: c1
  Multiplicity = 1
  Basis Set: AUG-CC-PVTZ
    Blend: AUG-CC-PVTZ
  Basis Set: (AUG-CC-PVTZ AUX)
    Blend: AUG-CC-PVTZ-JKFIT
  @DF-RHF Final Energy:   -76.05854453443007
    Total Energy =                        -76.0585445344300695
  //            Monomer B HF           //
    Molecular point group: c1

    Geometry (in Angstrom), charge = -1, multiplicity = 1:

       Center              X                  Y                   Z               Mass
    ------------   -----------------  -----------------  -----------------  -----------------
      Gh(O)           0.000000000000     0.000000000000     0.000000000000    15.994914619570
      Gh(H)           0.086074000000     0.942740000000    -0.149084000000     1.007825032230
      Gh(H)           0.458378000000    -0.359212000000    -0.793935000000     1.007825032230
         BR           3.212066000000     0.000000000000     0.000000000000    78.918337600000

  Charge       = -1
  Multiplicity = 1
  Basis Set: AUG-CC-PVTZ
    Blend: AUG-CC-PVTZ
  Basis Set: (AUG-CC-PVTZ AUX)
    Blend: AUG-CC-PVTZ-JKFIT

    Orbital Energies [Eh]
    ---------------------

    Doubly Occupied:

       1A   -489.720548     2A    -64.860585     3A    -58.215062
       4A    -58.215061     5A    -58.215059     6A     -9.532893
       7A     -7.140238     8A     -7.140237     9A     -7.140227
      10A     -2.881907    11A     -2.881907    12A     -2.881906
      13A     -2.881904    14A     -2.881892    15A     -0.685997
      16A     -0.139337    17A     -0.139335    18A     -0.139335

  @DF-RHF Final Energy: -2572.53367583721183

   => Energetics <=

    Nuclear Repulsion Energy =              0.0000000000000000
    One-Electron Energy =               -3593.6804944035729932
    Two-Electron Energy =                1021.1468185663609347
    Total Energy =                      -2572.5336758372122858
 Dipole X            :       -218.5172733          212.4473763           -6.0698970
 Dipole Y            :         -0.0000421            0.0000000           -0.0000421
 Dipole Z            :         -0.0000058            0.0000000           -0.0000058
 Magnitude           :                                                    6.0698970

    SAPT Results
  --------------------------------------------------------------------------------------------------------
    Electrostatics                -10.48411596 [mEh]      -6.57888209 [kcal/mol]     -27.52604267 [kJ/mol]
      Elst10,r                     -9.70675343 [mEh]      -6.09107974 [kcal/mol]     -25.48507762 [kJ/mol]
      Elst12,r                     -0.77736253 [mEh]      -0.48780235 [kcal/mol]      -2.04096505 [kJ/mol]

    Exchange                       15.82547590 [mEh]       9.93063605 [kcal/mol]      41.54978125 [kJ/mol]
      Exch10                       13.97295308 [mEh]       8.76816043 [kcal/mol]      36.68598325 [kJ/mol]
      Exch10(S^2)                  13.85757156 [mEh]       8.69575744 [kcal/mol]      36.38304912 [kJ/mol]
      Exch11(S^2)                   0.34869002 [mEh]       0.21880629 [kcal/mol]       0.91548552 [kJ/mol]
      Exch12(S^2)                   1.50383280 [mEh]       0.94366933 [kcal/mol]       3.94831248 [kJ/mol]

    Induction                      -4.00266941 [mEh]      -2.51171297 [kcal/mol]     -10.50900708 [kJ/mol]
      Ind20,r                     -13.11912235 [mEh]      -8.23237356 [kcal/mol]     -34.44425098 [kJ/mol]
      Ind22                        -2.23961991 [mEh]      -1.40538271 [kcal/mol]      -5.88012127 [kJ/mol]
      Exch-Ind20,r                 10.41294249 [mEh]       6.53422006 [kcal/mol]      27.33917674 [kJ/mol]
      Exch-Ind22                    1.77763670 [mEh]       1.11548387 [kcal/mol]       4.66718451 [kJ/mol]
      delta HF,r (2)               -0.83450633 [mEh]      -0.52366063 [kcal/mol]      -2.19099607 [kJ/mol]

    Dispersion                     -5.31689197 [mEh]      -3.33640008 [kcal/mol]     -13.95949794 [kJ/mol]
      Disp20                       -6.31185702 [mEh]      -3.96075008 [kcal/mol]     -16.57177832 [kJ/mol]
      Disp21                        0.44611367 [mEh]       0.27994056 [kcal/mol]       1.17127128 [kJ/mol]
      Disp22 (SDQ)                 -0.06896741 [mEh]      -0.04327770 [kcal/mol]      -0.18107391 [kJ/mol]
      Disp22 (T)                   -0.94767180 [mEh]      -0.59467304 [kcal/mol]      -2.48811198 [kJ/mol]
      Est. Disp22 (T)              -1.12133272 [mEh]      -0.70364691 [kcal/mol]      -2.94405865 [kJ/mol]
      Exch-Disp20                   1.73915151 [mEh]       1.09133405 [kcal/mol]       4.56614166 [kJ/mol]

  Total HF                          0.72551346 [mEh]       0.45526657 [kcal/mol]       1.90483532 [kJ/mol]
  Total SAPT0                      -3.84719205 [mEh]      -2.41414946 [kcal/mol]     -10.10080134 [kJ/mol]
  Total SAPT2                      -3.23401498 [mEh]      -2.02937504 [kcal/mol]      -8.49090516 [kJ/mol]
  Total SAPT2+                     -3.97820144 [mEh]      -2.49635909 [kcal/mol]     -10.44476644 [kJ/mol]

  Special recipe for scaled SAPT0 (see Manual):
    Electrostatics sSAPT0          -9.70675343 [mEh]      -6.09107974 [kcal/mol]     -25.48507762 [kJ/mol]
    Exchange sSAPT0                13.97295308 [mEh]       8.76816043 [kcal/mol]      36.68598325 [kJ/mol]
    Induction sSAPT0               -3.27841242 [mEh]      -2.05723485 [kcal/mol]      -8.60747062 [kJ/mol]
    Dispersion sSAPT0              -4.52890100 [mEh]      -2.84192828 [kcal/mol]     -11.89062794 [kJ/mol]
  Total sSAPT0                     -3.54111377 [mEh]      -2.22208244 [kcal/mol]      -9.29719293 [kJ/mol]
  --------------------------------------------------------------------------------------------------------

*** Psi4 exiting successfully. Buy a developer a beer!
