                               Psi4 1.9 release

  ==> Input File <==

--------------------------------------------------------------------------
MEMORY 60 GB

molecule dimer {
0 1
O      0.000000     0.000000     0.000000
H     -0.038859     0.955172     0.067305
H      0.489245    -0.109698    -0.847397
--
-1 1
Br     3.212066     0.000000     0.000000

units ang
no_reorient
no_com
symmetry c1
}

set {
basis        aug-cc-pVTZ
scf_type     df
}

energy("sapt2+")
--------------------------------------------------------------------------

  //              Dimer HF             //
    Molecular point group: c1
  Charge       = -1
  Multiplicity = 1
  Basis Set: AUG-CC-PVTZ
    Blend: AUG-CC-PVTZ
  Basis Set: (AUG-CC-PVTZ AUX)
    Blend: AUG-CC-PVTZ-JKFIT
  @DF-RHF Final Energy: -2648.59061597984510
    Total Energy =                      -2648.5906159798450972
 Dipole X            :       -218.9206608          213.2984825           -5.6221783
 Dipole Y            :         -1.1149336            1.5977143            0.4827807
 Dipole Z            :          1.0944628           -1.4741602           -0.3796974
 Magnitude           :                                                    5.6556287
  //            Monomer A HF           //
    Molecular point group: c1
  Multiplicity = 1
  Basis Set: AUG-CC-PVTZ
    Blend: AUG-CC-PVTZ
  Basis Set: (AUG-CC-PVTZ AUX)
    Blend: AUG-CC-PVTZ-JKFIT
  @DF-RHF Final Energy:   -76.05854639720808
    Total Energy =                        -76.0585463972080760
  //            Monomer B HF           //
    Molecular point group: c1

    Geometry (in Angstrom), charge = -1, multiplicity = 1:

       Center              X                  Y                   Z               Mass
    ------------   -----------------  -----------------  -----------------  -----------------
      Gh(O)           0.000000000000     0.000000000000     0.000000000000    15.994914619570
      Gh(H)          -0.038859000000     0.955172000000     0.067305000000     1.007825032230
      Gh(H)           0.489245000000    -0.109698000000    -0.847397000000     1.007825032230
         BR           3.212066000000     0.000000000000     0.000000000000    78.918337600000

  Charge       = -1
  Multiplicity = 1
  Basis Set: AUG-CC-PVTZ
    Blend: AUG-CC-PVTZ
  Basis Set: (AUG-CC-PVTZ AUX)
    Blend: AUG-CC-PVTZ-JKFIT

    Orbital Energies [Eh]
    ---------------------

    Doubly Occupied:

       1A   -489.720547     2A    -64.860584     3A    -58.215061
       4A    -58.215061     5A    -58.215059     6A     -9.532892
       7A     -7.140238     8A     -7.140237     9A     -7.140227
      10A     -2.881907    11A     -2.881907    12A     -2.881905
      13A     -2.881904    14A     -2.881892    15A     -0.685997
      16A     -0.139337    17A     -0.139335    18A     -0.139335

  @DF-RHF Final Energy: -2572.53367586293325

   => Energetics <=

    Nuclear Repulsion Energy =              0.0000000000000000
    One-Electron Energy =               -3593.6804980634183266
    Two-Electron Energy =                1021.1468222004848485
    Total Energy =                      -2572.5336758629337055
 Dipole X            :       -218.5172869          212.4473763           -6.0699106
 Dipole Y            :         -0.0000349            0.0000000           -0.0000349
 Dipole Z            :         -0.0000219            0.0000000           -0.0000219
 Magnitude           :                                                    6.0699106

    SAPT Results
  --------------------------------------------------------------------------------------------------------
    Electrostatics                 -9.48661593 [mEh]      -5.95294137 [kcal/mol]     -24.90710670 [kJ/mol]
      Elst10,r                     -8.63637827 [mEh]      -5.41940918 [kcal/mol]     -22.67480802 [kJ/mol]
      Elst12,r                     -0.85023766 [mEh]      -0.53353219 [kcal/mol]      -2.23229868 [kJ/mol]

    Exchange                       15.72076941 [mEh]       9.86493174 [kcal/mol]      41.27487441 [kJ/mol]
      Exch10                       13.90920361 [mEh]       8.72815704 [kcal/mol]      36.51860905 [kJ/mol]
      Exch10(S^2)                  13.79385102 [mEh]       8.65577220 [kcal/mol]      36.21575086 [kJ/mol]
      Exch11(S^2)                   0.32595171 [mEh]       0.20453779 [kcal/mol]       0.85578609 [kJ/mol]
      Exch12(S^2)                   1.48561409 [mEh]       0.93223692 [kcal/mol]       3.90047926 [kJ/mol]

    Induction                      -4.12971216 [mEh]      -2.59143350 [kcal/mol]     -10.84255777 [kJ/mol]
      Ind20,r                     -13.02492685 [mEh]      -8.17326499 [kcal/mol]     -34.19694074 [kJ/mol]
      Ind22                        -2.17651175 [mEh]      -1.36578174 [kcal/mol]      -5.71443082 [kJ/mol]
      Exch-Ind20,r                 10.25319005 [mEh]       6.43397389 [kcal/mol]      26.91974677 [kJ/mol]
      Exch-Ind22                    1.71334464 [mEh]       1.07514000 [kcal/mol]       4.49838574 [kJ/mol]
      delta HF,r (2)               -0.89480824 [mEh]      -0.56150065 [kcal/mol]      -2.34931872 [kJ/mol]

    Dispersion                     -5.26618757 [mEh]      -3.30458259 [kcal/mol]     -13.82637356 [kJ/mol]
      Disp20                       -6.26672647 [mEh]      -3.93243023 [kcal/mol]     -16.45328808 [kJ/mol]
      Disp21                        0.44907529 [mEh]       0.28179900 [kcal/mol]       1.17904702 [kJ/mol]
      Disp22 (SDQ)                 -0.06150451 [mEh]      -0.03859466 [kcal/mol]      -0.16148008 [kJ/mol]
      Disp22 (T)                   -0.93944255 [mEh]      -0.58950910 [kcal/mol]      -2.46650608 [kJ/mol]
      Est. Disp22 (T)              -1.10830977 [mEh]      -0.69547488 [kcal/mol]      -2.90986689 [kJ/mol]
      Exch-Disp20                   1.72127789 [mEh]       1.08011818 [kcal/mol]       4.51921447 [kJ/mol]

  Total HF                          1.60628030 [mEh]       1.00795610 [kcal/mol]       4.21728834 [kJ/mol]
  Total SAPT0                      -2.93916829 [mEh]      -1.84435595 [kcal/mol]      -7.71678527 [kJ/mol]
  Total SAPT2                      -2.44100726 [mEh]      -1.53175518 [kcal/mol]      -6.40886367 [kJ/mol]
  Total SAPT2+                     -3.16174624 [mEh]      -1.98402572 [kcal/mol]      -8.30116362 [kJ/mol]

  Special recipe for scaled SAPT0 (see Manual):
    Electrostatics sSAPT0          -8.63637827 [mEh]      -5.41940918 [kcal/mol]     -22.67480802 [kJ/mol]
    Exchange sSAPT0                13.90920361 [mEh]       8.72815704 [kcal/mol]      36.51860905 [kJ/mol]
    Induction sSAPT0               -3.40715766 [mEh]      -2.13802371 [kcal/mol]      -8.94549120 [kJ/mol]
    Dispersion sSAPT0              -4.50190333 [mEh]      -2.82498699 [kcal/mol]     -11.81974556 [kJ/mol]
  Total sSAPT0                     -2.63623564 [mEh]      -1.65426284 [kcal/mol]      -6.92143573 [kJ/mol]
  --------------------------------------------------------------------------------------------------------

*** Psi4 exiting successfully. Buy a developer a beer!
