                               Psi4 1.9 release

  ==> Input File <==

--------------------------------------------------------------------------
MEMORY 60 GB

molecule dimer {
0 1
O      0.000000     0.000000     0.000000
H     -0.433031     0.410281     0.750031
H      0.292123     0.792548    -0.505972
--
-1 1
Br     3.212066     0.000000     0.000000

units ang
no_reorient
no_com
symmetry c1
}

set {
basis        aug-cc-pVTZ
scf_type     df
}

energy("sapt2+")
--------------------------------------------------------------------------

  //              Dimer HF             //
    Molecular point group: c1
  Charge       = -1
  Multiplicity = 1
  Basis Set: AUG-CC-PVTZ
    Blend: AUG-CC-PVTZ
  Basis Set: (AUG-CC-PVTZ AUX)
    Blend: AUG-CC-PVTZ-JKFIT
  @DF-RHF Final Energy: -2648.58288579099508
    Total Energy =                      -2648.5828857909955332
 Dipole X            :       -218.2777733          212.1810988           -6.0966745
 Dipole Y            :         -1.6185763            2.2730174            0.6544411
 Dipole Z            :         -0.2756925            0.4612047            0.1855122
 Magnitude           :                                                    6.1345047
  //            Monomer A HF           //
    Molecular point group: c1
  Multiplicity = 1
  Basis Set: AUG-CC-PVTZ
    Blend: AUG-CC-PVTZ
  Basis Set: (AUG-CC-PVTZ AUX)
    Blend: AUG-CC-PVTZ-JKFIT
  @DF-RHF Final Energy:   -76.05854877371755
    Total Energy =                        -76.0585487737175470
  //            Monomer B HF           //
    Molecular point group: c1

    Geometry (in Angstrom), charge = -1, multiplicity = 1:

       Center              X                  Y                   Z               Mass
    ------------   -----------------  -----------------  -----------------  -----------------
      Gh(O)           0.000000000000     0.000000000000     0.000000000000    15.994914619570
      Gh(H)          -0.433031000000     0.410281000000     0.750031000000     1.007825032230
      Gh(H)           0.292123000000     0.792548000000    -0.505972000000     1.007825032230
         BR           3.212066000000     0.000000000000     0.000000000000    78.918337600000

  Charge       = -1
  Multiplicity = 1
  Basis Set: AUG-CC-PVTZ
    Blend: AUG-CC-PVTZ
  Basis Set: (AUG-CC-PVTZ AUX)
    Blend: AUG-CC-PVTZ-JKFIT

    Orbital Energies [Eh]
    ---------------------

    Doubly Occupied:

       1A   -489.720513     2A    -64.860561     3A    -58.215036
       4A    -58.215035     5A    -58.215034     6A     -9.532886
       7A     -7.140230     8A     -7.140229     9A     -7.140220
      10A     -2.881898    11A     -2.881898    12A     -2.881897
      13A     -2.881896    14A     -2.881886    15A     -0.685998
      16A     -0.139337    17A     -0.139335    18A     -0.139335

  @DF-RHF Final Energy: -2572.53367449075540

   => Energetics <=

    Nuclear Repulsion Energy =              0.0000000000000000
    One-Electron Energy =               -3593.6808949381465936
    Two-Electron Energy =                1021.1472204473913052
    Total Energy =                      -2572.5336744907554021
 Dipole X            :       -218.5172062          212.4473763           -6.0698299
 Dipole Y            :         -0.0000237            0.0000000           -0.0000237
 Dipole Z            :         -0.0000075            0.0000000           -0.0000075
 Magnitude           :                                                    6.0698299

    SAPT Results
  --------------------------------------------------------------------------------------------------------
    Electrostatics                 -0.46690045 [mEh]      -0.29298446 [kcal/mol]      -1.22584697 [kJ/mol]
      Elst10,r                      0.85486456 [mEh]       0.53643561 [kcal/mol]       2.24444659 [kJ/mol]
      Elst12,r                     -1.32176501 [mEh]      -0.82942007 [kcal/mol]      -3.47029356 [kJ/mol]

    Exchange                       13.26668054 [mEh]       8.32496773 [kcal/mol]      34.83166496 [kJ/mol]
      Exch10                       11.77141751 [mEh]       7.38667601 [kcal/mol]      30.90585241 [kJ/mol]
      Exch10(S^2)                  11.68884299 [mEh]       7.33485971 [kcal/mol]      30.68905304 [kJ/mol]
      Exch11(S^2)                   0.12059629 [mEh]       0.07567532 [kcal/mol]       0.31662553 [kJ/mol]
      Exch12(S^2)                   1.37466674 [mEh]       0.86261640 [kcal/mol]       3.60918703 [kJ/mol]

    Induction                      -3.68535273 [mEh]      -2.31259375 [kcal/mol]      -9.67589225 [kJ/mol]
      Ind20,r                     -11.25962556 [mEh]      -7.06552171 [kcal/mol]     -29.56214284 [kJ/mol]
      Ind22                        -1.76893651 [mEh]      -1.11002442 [kcal/mol]      -4.64434217 [kJ/mol]
      Exch-Ind20,r                  8.73554486 [mEh]       5.48163716 [kcal/mol]      22.93516986 [kJ/mol]
      Exch-Ind22                    1.37239237 [mEh]       0.86118921 [kcal/mol]       3.60321567 [kJ/mol]
      delta HF,r (2)               -0.76472788 [mEh]      -0.47987399 [kcal/mol]      -2.00779278 [kJ/mol]

    Dispersion                     -4.58723152 [mEh]      -2.87853124 [kcal/mol]     -12.04377469 [kJ/mol]
      Disp20                       -5.54677367 [mEh]      -3.48065303 [kcal/mol]     -14.56305227 [kJ/mol]
      Disp21                        0.46012766 [mEh]       0.28873447 [kcal/mol]       1.20806502 [kJ/mol]
      Disp22 (SDQ)                 -0.05312020 [mEh]      -0.03333343 [kcal/mol]      -0.13946707 [kJ/mol]
      Disp22 (T)                   -0.81734586 [mEh]      -0.51289227 [kcal/mol]      -2.14594125 [kJ/mol]
      Est. Disp22 (T)              -0.96712929 [mEh]      -0.60688279 [kcal/mol]      -2.53919761 [kJ/mol]
      Exch-Disp20                   1.51966399 [mEh]       0.95360355 [kcal/mol]       3.98987725 [kJ/mol]

  Total HF                          9.33747348 [mEh]       5.85935307 [kcal/mol]      24.51553324 [kJ/mol]
  Total SAPT0                       5.31036379 [mEh]       3.33230359 [kcal/mol]      13.94235822 [kJ/mol]
  Total SAPT2                       5.08731768 [mEh]       3.19234004 [kcal/mol]      13.35675072 [kJ/mol]
  Total SAPT2+                      4.52719584 [mEh]       2.84085828 [kcal/mol]      11.88615105 [kJ/mol]

  Special recipe for scaled SAPT0 (see Manual):
    Electrostatics sSAPT0           0.85486456 [mEh]       0.53643561 [kcal/mol]       2.24444659 [kJ/mol]
    Exchange sSAPT0                11.77141751 [mEh]       7.38667601 [kcal/mol]      30.90585241 [kJ/mol]
    Induction sSAPT0               -3.10236383 [mEh]      -1.94676269 [kcal/mol]      -8.14525512 [kJ/mol]
    Dispersion sSAPT0              -3.99467514 [mEh]      -2.50669650 [kcal/mol]     -10.48801814 [kJ/mol]
  Total sSAPT0                      5.52924309 [mEh]       3.46965242 [kcal/mol]      14.51702574 [kJ/mol]
  --------------------------------------------------------------------------------------------------------

*** Psi4 exiting successfully. Buy a developer a beer!
