                               Psi4 1.9 release

  ==> Input File <==

--------------------------------------------------------------------------
MEMORY 60 GB

molecule dimer {
0 1
O      0.000000     0.000000     0.000000
H     -0.365181     0.620454     0.632513
H      0.384733     0.614329    -0.666376
--
-1 1
Br     3.212066     0.000000     0.000000

units ang
no_reorient
no_com
symmetry c1
}

set {
basis        aug-cc-pVTZ
scf_type     df
}

energy("sapt2+")
--------------------------------------------------------------------------

  //              Dimer HF             //
    Molecular point group: c1
  Charge       = -1
  Multiplicity = 1
  Basis Set: AUG-CC-PVTZ
    Blend: AUG-CC-PVTZ
  Basis Set: (AUG-CC-PVTZ AUX)
    Blend: AUG-CC-PVTZ-JKFIT
  @DF-RHF Final Energy: -2648.58522402960034
    Total Energy =                      -2648.5852240296003401
 Dipole X            :       -218.4472421          212.4843242           -5.9629179
 Dipole Y            :         -1.6561283            2.3334017            0.6772734
 Dipole Z            :          0.1009177           -0.0639918            0.0369259
 Magnitude           :                                                    6.0013709
  //            Monomer A HF           //
    Molecular point group: c1
  Multiplicity = 1
  Basis Set: AUG-CC-PVTZ
    Blend: AUG-CC-PVTZ
  Basis Set: (AUG-CC-PVTZ AUX)
    Blend: AUG-CC-PVTZ-JKFIT
  @DF-RHF Final Energy:   -76.05854824864836
    Total Energy =                        -76.0585482486483784
  //            Monomer B HF           //
    Molecular point group: c1

    Geometry (in Angstrom), charge = -1, multiplicity = 1:

       Center              X                  Y                   Z               Mass
    ------------   -----------------  -----------------  -----------------  -----------------
      Gh(O)           0.000000000000     0.000000000000     0.000000000000    15.994914619570
      Gh(H)          -0.365181000000     0.620454000000     0.632513000000     1.007825032230
      Gh(H)           0.384733000000     0.614329000000    -0.666376000000     1.007825032230
         BR           3.212066000000     0.000000000000     0.000000000000    78.918337600000

  Charge       = -1
  Multiplicity = 1
  Basis Set: AUG-CC-PVTZ
    Blend: AUG-CC-PVTZ
  Basis Set: (AUG-CC-PVTZ AUX)
    Blend: AUG-CC-PVTZ-JKFIT

    Orbital Energies [Eh]
    ---------------------

    Doubly Occupied:

       1A   -489.720523     2A    -64.860568     3A    -58.215044
       4A    -58.215043     5A    -58.215042     6A     -9.532888
       7A     -7.140232     8A     -7.140232     9A     -7.140223
      10A     -2.881901    11A     -2.881901    12A     -2.881900
      13A     -2.881899    14A     -2.881888    15A     -0.685998
      16A     -0.139337    17A     -0.139336    18A     -0.139335

  @DF-RHF Final Energy: -2572.53367486616571

   => Energetics <=

    Nuclear Repulsion Energy =              0.0000000000000000
    One-Electron Energy =               -3593.6807698496018020
    Two-Electron Energy =                1021.1470949834365456
    Total Energy =                      -2572.5336748661652564
 Dipole X            :       -218.5172292          212.4473763           -6.0698529
 Dipole Y            :         -0.0000245            0.0000000           -0.0000245
 Dipole Z            :         -0.0000110            0.0000000           -0.0000110
 Magnitude           :                                                    6.0698529

    SAPT Results
  --------------------------------------------------------------------------------------------------------
    Electrostatics                 -3.16153797 [mEh]      -1.98389503 [kcal/mol]      -8.30061679 [kJ/mol]
      Elst10,r                     -1.96946504 [mEh]      -1.23585797 [kcal/mol]      -5.17082974 [kJ/mol]
      Elst12,r                     -1.19207293 [mEh]      -0.74803706 [kcal/mol]      -3.12978705 [kJ/mol]

    Exchange                       13.98173661 [mEh]       8.77367218 [kcal/mol]      36.70904441 [kJ/mol]
      Exch10                       12.40886666 [mEh]       7.78668139 [kcal/mol]      32.57947493 [kJ/mol]
      Exch10(S^2)                  12.31711031 [mEh]       7.72910341 [kcal/mol]      32.33856868 [kJ/mol]
      Exch11(S^2)                   0.17633514 [mEh]       0.11065197 [kcal/mol]       0.46296786 [kJ/mol]
      Exch12(S^2)                   1.39653480 [mEh]       0.87633882 [kcal/mol]       3.66660162 [kJ/mol]

    Induction                      -3.85564186 [mEh]      -2.41945179 [kcal/mol]     -10.12298630 [kJ/mol]
      Ind20,r                     -11.77106908 [mEh]      -7.38645737 [kcal/mol]     -30.90493762 [kJ/mol]
      Ind22                        -1.86667584 [mEh]      -1.17135677 [kcal/mol]      -4.90095674 [kJ/mol]
      Exch-Ind20,r                  9.15206881 [mEh]       5.74300989 [kcal/mol]      24.02875336 [kJ/mol]
      Exch-Ind22                    1.45135039 [mEh]       0.91073612 [kcal/mol]       3.81051993 [kJ/mol]
      delta HF,r (2)               -0.82131614 [mEh]      -0.51538366 [kcal/mol]      -2.15636523 [kJ/mol]

    Dispersion                     -4.78289372 [mEh]      -3.00131112 [kcal/mol]     -12.55748573 [kJ/mol]
      Disp20                       -5.75781535 [mEh]      -3.61308368 [kcal/mol]     -15.11714211 [kJ/mol]
      Disp21                        0.45664042 [mEh]       0.28654619 [kcal/mol]       1.19890926 [kJ/mol]
      Disp22 (SDQ)                 -0.05097736 [mEh]      -0.03198878 [kcal/mol]      -0.13384105 [kJ/mol]
      Disp22 (T)                   -0.85178748 [mEh]      -0.53450471 [kcal/mol]      -2.23636772 [kJ/mol]
      Est. Disp22 (T)              -1.00640765 [mEh]      -0.63153033 [kcal/mol]      -2.64232292 [kJ/mol]
      Exch-Disp20                   1.57566622 [mEh]       0.98874548 [kcal/mol]       4.13691109 [kJ/mol]

  Total HF                          6.99908521 [mEh]       4.39199228 [kcal/mol]      18.37609570 [kJ/mol]
  Total SAPT0                       2.81693609 [mEh]       1.76765408 [kcal/mol]       7.39586468 [kJ/mol]
  Total SAPT2                       2.78240765 [mEh]       1.74598716 [kcal/mol]       7.30521029 [kJ/mol]
  Total SAPT2+                      2.18166306 [mEh]       1.36901424 [kcal/mol]       5.72795558 [kJ/mol]

  Special recipe for scaled SAPT0 (see Manual):
    Electrostatics sSAPT0          -1.96946504 [mEh]      -1.23585797 [kcal/mol]      -5.17082974 [kJ/mol]
    Exchange sSAPT0                12.40886666 [mEh]       7.78668139 [kcal/mol]      32.57947493 [kJ/mol]
    Induction sSAPT0               -3.23425386 [mEh]      -2.02952493 [kcal/mol]      -8.49153233 [kJ/mol]
    Dispersion sSAPT0              -4.14667236 [mEh]      -2.60207619 [kcal/mol]     -10.88708679 [kJ/mol]
  Total sSAPT0                      3.05847541 [mEh]       1.91922229 [kcal/mol]       8.03002608 [kJ/mol]
  --------------------------------------------------------------------------------------------------------

*** Psi4 exiting successfully. Buy a developer a beer!
