                               Psi4 1.9 release

  ==> Input File <==

--------------------------------------------------------------------------
MEMORY 60 GB

molecule dimer {
0 1
O      0.000000     0.000000     0.000000
H      0.205141     0.866062    -0.355314
H      0.396274    -0.584246    -0.686367
--
-1 1
Br     3.212066     0.000000     0.000000

units ang
no_reorient
no_com
symmetry c1
}

set {
basis        aug-cc-pVTZ
scf_type     df
}

energy("sapt2+")
--------------------------------------------------------------------------

  //              Dimer HF             //
    Molecular point group: c1
  Charge       = -1
  Multiplicity = 1
  Basis Set: AUG-CC-PVTZ
    Blend: AUG-CC-PVTZ
  Basis Set: (AUG-CC-PVTZ AUX)
    Blend: AUG-CC-PVTZ-JKFIT
  @DF-RHF Final Energy: -2648.59194755170302
    Total Energy =                      -2648.5919475517030151
 Dipole X            :       -219.1045211          213.5838859           -5.5206352
 Dipole Y            :         -0.3653290            0.5325551            0.1672260
 Dipole Z            :          1.4294331           -1.9684918           -0.5390587
 Magnitude           :                                                    5.5494109
  //            Monomer A HF           //
    Molecular point group: c1
  Multiplicity = 1
  Basis Set: AUG-CC-PVTZ
    Blend: AUG-CC-PVTZ
  Basis Set: (AUG-CC-PVTZ AUX)
    Blend: AUG-CC-PVTZ-JKFIT
  @DF-RHF Final Energy:   -76.05854278147949
    Total Energy =                        -76.0585427814795025
  //            Monomer B HF           //
    Molecular point group: c1

    Geometry (in Angstrom), charge = -1, multiplicity = 1:

       Center              X                  Y                   Z               Mass
    ------------   -----------------  -----------------  -----------------  -----------------
      Gh(O)           0.000000000000     0.000000000000     0.000000000000    15.994914619570
      Gh(H)           0.205141000000     0.866062000000    -0.355314000000     1.007825032230
      Gh(H)           0.396274000000    -0.584246000000    -0.686367000000     1.007825032230
         BR           3.212066000000     0.000000000000     0.000000000000    78.918337600000

  Charge       = -1
  Multiplicity = 1
  Basis Set: AUG-CC-PVTZ
    Blend: AUG-CC-PVTZ
  Basis Set: (AUG-CC-PVTZ AUX)
    Blend: AUG-CC-PVTZ-JKFIT

    Orbital Energies [Eh]
    ---------------------

    Doubly Occupied:

       1A   -489.720546     2A    -64.860583     3A    -58.215060
       4A    -58.215060     5A    -58.215058     6A     -9.532892
       7A     -7.140237     8A     -7.140236     9A     -7.140227
      10A     -2.881906    11A     -2.881906    12A     -2.881905
      13A     -2.881904    14A     -2.881892    15A     -0.685997
      16A     -0.139337    17A     -0.139335    18A     -0.139335

  @DF-RHF Final Energy: -2572.53367565628196

   => Energetics <=

    Nuclear Repulsion Energy =              0.0000000000000000
    One-Electron Energy =               -3593.6805170017637465
    Two-Electron Energy =                1021.1468413454820165
    Total Energy =                      -2572.5336756562819573
 Dipole X            :       -218.5172540          212.4473763           -6.0698778
 Dipole Y            :         -0.0000301            0.0000000           -0.0000301
 Dipole Z            :          0.0000166            0.0000000            0.0000166
 Magnitude           :                                                    6.0698778

    SAPT Results
  --------------------------------------------------------------------------------------------------------
    Electrostatics                -10.96897619 [mEh]      -6.88313648 [kcal/mol]     -28.79904303 [kJ/mol]
      Elst10,r                    -10.23691425 [mEh]      -6.42376068 [kcal/mol]     -26.87701467 [kJ/mol]
      Elst12,r                     -0.73206194 [mEh]      -0.45937580 [kcal/mol]      -1.92202836 [kJ/mol]

    Exchange                       15.77383577 [mEh]       9.89823138 [kcal/mol]      41.41420010 [kJ/mol]
      Exch10                       13.90382326 [mEh]       8.72478082 [kcal/mol]      36.50448295 [kJ/mol]
      Exch10(S^2)                  13.79073264 [mEh]       8.65381538 [kcal/mol]      36.20756356 [kJ/mol]
      Exch11(S^2)                   0.35701432 [mEh]       0.22402987 [kcal/mol]       0.93734096 [kJ/mol]
      Exch12(S^2)                   1.51299818 [mEh]       0.94942069 [kcal/mol]       3.97237619 [kJ/mol]

    Induction                      -3.85178765 [mEh]      -2.41703324 [kcal/mol]     -10.11286709 [kJ/mol]
      Ind20,r                     -13.10206598 [mEh]      -8.22167053 [kcal/mol]     -34.39946949 [kJ/mol]
      Ind22                        -2.27273874 [mEh]      -1.42616509 [kcal/mol]      -5.96707473 [kJ/mol]
      Exch-Ind20,r                 10.47463720 [mEh]       6.57293408 [kcal/mol]      27.50115617 [kJ/mol]
      Exch-Ind22                    1.81697404 [mEh]       1.14016842 [kcal/mol]       4.77046467 [kJ/mol]
      delta HF,r (2)               -0.76859417 [mEh]      -0.48230012 [kcal/mol]      -2.01794372 [kJ/mol]

    Dispersion                     -5.32382646 [mEh]      -3.34075154 [kcal/mol]     -13.97770446 [kJ/mol]
      Disp20                       -6.31138383 [mEh]      -3.96045314 [kcal/mol]     -16.57053595 [kJ/mol]
      Disp21                        0.44344745 [mEh]       0.27826748 [kcal/mol]       1.16427112 [kJ/mol]
      Disp22 (SDQ)                 -0.07492714 [mEh]      -0.04701749 [kcal/mol]      -0.19672117 [kJ/mol]
      Disp22 (T)                   -0.94660503 [mEh]      -0.59400362 [kcal/mol]      -2.48531116 [kJ/mol]
      Est. Disp22 (T)              -1.12472924 [mEh]      -0.70577826 [kcal/mol]      -2.95297622 [kJ/mol]
      Exch-Disp20                   1.74376629 [mEh]       1.09422987 [kcal/mol]       4.57825776 [kJ/mol]

  Total HF                          0.27088606 [mEh]       0.16998357 [kcal/mol]       0.71121125 [kJ/mol]
  Total SAPT0                      -4.29673148 [mEh]      -2.69623971 [kcal/mol]     -11.28106694 [kJ/mol]
  Total SAPT2                      -3.61454562 [mEh]      -2.26816162 [kcal/mol]      -9.48998821 [kJ/mol]
  Total SAPT2+                     -4.37075454 [mEh]      -2.74268988 [kcal/mol]     -11.47541448 [kJ/mol]

  Special recipe for scaled SAPT0 (see Manual):
    Electrostatics sSAPT0         -10.23691425 [mEh]      -6.42376068 [kcal/mol]     -26.87701467 [kJ/mol]
    Exchange sSAPT0                13.90382326 [mEh]       8.72478082 [kcal/mol]      36.50448295 [kJ/mol]
    Induction sSAPT0               -3.13621284 [mEh]      -1.96800327 [kcal/mol]      -8.23412567 [kJ/mol]
    Dispersion sSAPT0              -4.52436562 [mEh]      -2.83908229 [kcal/mol]     -11.87872030 [kJ/mol]
  Total sSAPT0                     -3.99366945 [mEh]      -2.50606541 [kcal/mol]     -10.48537769 [kJ/mol]
  --------------------------------------------------------------------------------------------------------

*** Psi4 exiting successfully. Buy a developer a beer!
