                               Psi4 1.9 release

  ==> Input File <==

--------------------------------------------------------------------------
MEMORY 60 GB

molecule dimer {
0 1
O      0.000000     0.000000     0.000000
H      0.310227     0.730363    -0.537329
H      0.307164    -0.769465    -0.532024
--
-1 1
Br     3.212066     0.000000     0.000000

units ang
no_reorient
no_com
symmetry c1
}

set {
basis        aug-cc-pVTZ
scf_type     df
}

energy("sapt2+")
--------------------------------------------------------------------------

  //              Dimer HF             //
    Molecular point group: c1
  Charge       = -1
  Multiplicity = 1
  Basis Set: AUG-CC-PVTZ
    Blend: AUG-CC-PVTZ
  Basis Set: (AUG-CC-PVTZ AUX)
    Blend: AUG-CC-PVTZ-JKFIT
  @DF-RHF Final Energy: -2648.59205772251198
    Total Energy =                      -2648.5920577225115267
 Dipole X            :       -219.1254085          213.6140762           -5.5113323
 Dipole Y            :          0.0552903           -0.0738921           -0.0186018
 Dipole Z            :          1.4634427           -2.0207843           -0.5573416
 Magnitude           :                                                    5.5394728
  //            Monomer A HF           //
    Molecular point group: c1
  Multiplicity = 1
  Basis Set: AUG-CC-PVTZ
    Blend: AUG-CC-PVTZ
  Basis Set: (AUG-CC-PVTZ AUX)
    Blend: AUG-CC-PVTZ-JKFIT
  @DF-RHF Final Energy:   -76.05854208932138
    Total Energy =                        -76.0585420893213779
  //            Monomer B HF           //
    Molecular point group: c1

    Geometry (in Angstrom), charge = -1, multiplicity = 1:

       Center              X                  Y                   Z               Mass
    ------------   -----------------  -----------------  -----------------  -----------------
      Gh(O)           0.000000000000     0.000000000000     0.000000000000    15.994914619570
      Gh(H)           0.310227000000     0.730363000000    -0.537329000000     1.007825032230
      Gh(H)           0.307164000000    -0.769465000000    -0.532024000000     1.007825032230
         BR           3.212066000000     0.000000000000     0.000000000000    78.918337600000

  Charge       = -1
  Multiplicity = 1
  Basis Set: AUG-CC-PVTZ
    Blend: AUG-CC-PVTZ
  Basis Set: (AUG-CC-PVTZ AUX)
    Blend: AUG-CC-PVTZ-JKFIT

    Orbital Energies [Eh]
    ---------------------

    Doubly Occupied:

       1A   -489.720545     2A    -64.860582     3A    -58.215059
       4A    -58.215059     5A    -58.215057     6A     -9.532892
       7A     -7.140237     8A     -7.140236     9A     -7.140226
      10A     -2.881906    11A     -2.881906    12A     -2.881905
      13A     -2.881903    14A     -2.881892    15A     -0.685997
      16A     -0.139337    17A     -0.139335    18A     -0.139335

  @DF-RHF Final Energy: -2572.53367556253443

   => Energetics <=

    Nuclear Repulsion Energy =              0.0000000000000000
    One-Electron Energy =               -3593.6805289120979978
    Two-Electron Energy =                1021.1468533495635711
    Total Energy =                      -2572.5336755625344267
 Dipole X            :       -218.5172462          212.4473763           -6.0698699
 Dipole Y            :          0.0000010            0.0000000            0.0000010
 Dipole Z            :          0.0000268            0.0000000            0.0000268
 Magnitude           :                                                    6.0698699

    SAPT Results
  --------------------------------------------------------------------------------------------------------
    Electrostatics                -11.06646481 [mEh]      -6.94431151 [kcal/mol]     -29.05499935 [kJ/mol]
      Elst10,r                    -10.34982415 [mEh]      -6.49461271 [kcal/mol]     -27.17345956 [kJ/mol]
      Elst12,r                     -0.71664066 [mEh]      -0.44969880 [kcal/mol]      -1.88153979 [kJ/mol]

    Exchange                       15.70596473 [mEh]       9.85564166 [kcal/mol]      41.23600472 [kJ/mol]
      Exch10                       13.83491612 [mEh]       8.68154093 [kcal/mol]      36.32356726 [kJ/mol]
      Exch10(S^2)                  13.72355596 [mEh]       8.61166138 [kcal/mol]      36.03119120 [kJ/mol]
      Exch11(S^2)                   0.35541572 [mEh]       0.22302673 [kcal/mol]       0.93314385 [kJ/mol]
      Exch12(S^2)                   1.51563289 [mEh]       0.95107400 [kcal/mol]       3.97929362 [kJ/mol]

    Induction                      -3.77666191 [mEh]      -2.36989113 [kcal/mol]      -9.91562449 [kJ/mol]
      Ind20,r                     -13.06759461 [mEh]      -8.20003942 [kcal/mol]     -34.30896493 [kJ/mol]
      Ind22                        -2.28020782 [mEh]      -1.43085201 [kcal/mol]      -5.98668481 [kJ/mol]
      Exch-Ind20,r                 10.48010692 [mEh]       6.57636638 [kcal/mol]      27.51551692 [kJ/mol]
      Exch-Ind22                    1.82870853 [mEh]       1.14753193 [kcal/mol]       4.80127359 [kJ/mol]
      delta HF,r (2)               -0.73767492 [mEh]      -0.46289800 [kcal/mol]      -1.93676525 [kJ/mol]

    Dispersion                     -5.31340595 [mEh]      -3.33421257 [kcal/mol]     -13.95034541 [kJ/mol]
      Disp20                       -6.29685021 [mEh]      -3.95133316 [kcal/mol]     -16.53237795 [kJ/mol]
      Disp21                        0.44207999 [mEh]       0.27740938 [kcal/mol]       1.16068084 [kJ/mol]
      Disp22 (SDQ)                 -0.07736792 [mEh]      -0.04854910 [kcal/mol]      -0.20312945 [kJ/mol]
      Disp22 (T)                   -0.94384693 [mEh]      -0.59227289 [kcal/mol]      -2.47806977 [kJ/mol]
      Est. Disp22 (T)              -1.12318017 [mEh]      -0.70480620 [kcal/mol]      -2.94890912 [kJ/mol]
      Exch-Disp20                   1.74191236 [mEh]       1.09306651 [kcal/mol]       4.57339027 [kJ/mol]

  Total HF                          0.15992934 [mEh]       0.10035718 [kcal/mol]       0.41989443 [kJ/mol]
  Total SAPT0                      -4.39500851 [mEh]      -2.75790948 [kcal/mol]     -11.53909325 [kJ/mol]
  Total SAPT2                      -3.69209984 [mEh]      -2.31682763 [kcal/mol]      -9.69360679 [kJ/mol]
  Total SAPT2+                     -4.45056794 [mEh]      -2.79277355 [kcal/mol]     -11.68496452 [kJ/mol]

  Special recipe for scaled SAPT0 (see Manual):
    Electrostatics sSAPT0         -10.34982415 [mEh]      -6.49461271 [kcal/mol]     -27.17345956 [kJ/mol]
    Exchange sSAPT0                13.83491612 [mEh]       8.68154093 [kcal/mol]      36.32356726 [kJ/mol]
    Induction sSAPT0               -3.06796350 [mEh]      -1.92517616 [kcal/mol]      -8.05493707 [kJ/mol]
    Dispersion sSAPT0              -4.51218845 [mEh]      -2.83144100 [kcal/mol]     -11.84674914 [kJ/mol]
  Total sSAPT0                     -4.09505998 [mEh]      -2.56968894 [kcal/mol]     -10.75157851 [kJ/mol]
  --------------------------------------------------------------------------------------------------------

*** Psi4 exiting successfully. Buy a developer a beer!
