                               Psi4 1.9 release

  ==> Input File <==

--------------------------------------------------------------------------
MEMORY 60 GB

molecule dimer {
0 1
F      0.000000     0.000000     0.000000
Li     0.000000     1.584155     0.000000
--
1 1
Li     1.742571     0.000000     0.000000

units ang
no_reorient
no_com
symmetry c1
}

set {
basis        aug-cc-pVTZ
scf_type     df
}

energy("sapt2+")
--------------------------------------------------------------------------

  //              Dimer HF             //
    Molecular point group: c1
  Charge       = 1
  Multiplicity = 1
  Basis Set: AUG-CC-PVTZ
    Blend: AUG-CC-PVTZ
  Basis Set: (AUG-CC-PVTZ AUX)
    Blend: AUG-CC-PVTZ-JKFIT + DEF2-UNIVERSAL-JKFIT
  @DF-RHF Final Energy:  -114.28433287859841
    Total Energy =                       -114.2843328785984056
 Dipole X            :         -6.9721343            9.8789458            2.9068115
 Dipole Y            :         -6.3728433            8.9808573            2.6080139
 Dipole Z            :         -0.0000000            0.0000000           -0.0000000
 Magnitude           :                                                    3.9052900
  //            Monomer A HF           //
    Molecular point group: c1
  Multiplicity = 1
  Basis Set: AUG-CC-PVTZ
    Blend: AUG-CC-PVTZ
  Basis Set: (AUG-CC-PVTZ AUX)
    Blend: AUG-CC-PVTZ-JKFIT + DEF2-UNIVERSAL-JKFIT
  @DF-RHF Final Energy:  -106.98300542174091
    Total Energy =                       -106.9830054217409128
  //            Monomer B HF           //
    Molecular point group: c1

    Geometry (in Angstrom), charge = 1, multiplicity = 1:

       Center              X                  Y                   Z               Mass
    ------------   -----------------  -----------------  -----------------  -----------------
      Gh(F)           0.000000000000     0.000000000000     0.000000000000    18.998403162730
      Gh(LI)          0.000000000000     1.584155000000     0.000000000000     7.016003436600
         LI           1.742571000000     0.000000000000     0.000000000000     7.016003436600

  Charge       = 1
  Multiplicity = 1
  Basis Set: AUG-CC-PVTZ
    Blend: AUG-CC-PVTZ
  Basis Set: (AUG-CC-PVTZ AUX)
    Blend: AUG-CC-PVTZ-JKFIT + DEF2-UNIVERSAL-JKFIT

    Orbital Energies [Eh]
    ---------------------

    Doubly Occupied:

       1A     -2.792370

  @DF-RHF Final Energy:    -7.23638347768138

   => Energetics <=

    Nuclear Repulsion Energy =              0.0000000000000000
    One-Electron Energy =                  -8.8880269586550877
    Two-Electron Energy =                   1.6516434809737102
    Total Energy =                         -7.2363834776813771
 Dipole X            :         -6.5859868            9.8789458            3.2929591
 Dipole Y            :          0.0000518            0.0000000            0.0000518
 Dipole Z            :         -0.0000000            0.0000000           -0.0000000
 Magnitude           :                                                    3.2929591

    SAPT Results
  --------------------------------------------------------------------------------------------------------
    Electrostatics                -71.70238410 [mEh]     -44.99392531 [kcal/mol]    -188.25458352 [kJ/mol]
      Elst10,r                    -73.73597364 [mEh]     -46.27002201 [kcal/mol]    -193.59377211 [kJ/mol]
      Elst12,r                      2.03358954 [mEh]       1.27609670 [kcal/mol]       5.33918859 [kJ/mol]

    Exchange                       34.86959571 [mEh]      21.88100165 [kcal/mol]      91.55011092 [kJ/mol]
      Exch10                       30.18480275 [mEh]      18.94124969 [kcal/mol]      79.25018871 [kJ/mol]
      Exch10(S^2)                  29.95330789 [mEh]      18.79598447 [kcal/mol]      78.64239904 [kJ/mol]
      Exch11(S^2)                  -0.26845283 [mEh]      -0.16845669 [kcal/mol]      -0.70482280 [kJ/mol]
      Exch12(S^2)                   4.95324578 [mEh]       3.10820865 [kcal/mol]      13.00474501 [kJ/mol]

    Induction                     -24.60632936 [mEh]     -15.44070479 [kcal/mol]     -64.60390884 [kJ/mol]
      Ind20,r                     -41.56395603 [mEh]     -26.08177618 [kcal/mol]    -109.12615153 [kJ/mol]
      Ind22                        -7.31163689 [mEh]      -4.58812142 [kcal/mol]     -19.19670002 [kJ/mol]
      Exch-Ind20,r                 23.29627529 [mEh]      14.61863345 [kcal/mol]      61.16436236 [kJ/mol]
      Exch-Ind22                    4.09811582 [mEh]       2.57160650 [kcal/mol]      10.75960161 [kJ/mol]
      delta HF,r (2)               -3.12512755 [mEh]      -1.96104715 [kcal/mol]      -8.20502126 [kJ/mol]

    Dispersion                     -1.21468707 [mEh]      -0.76222764 [kcal/mol]      -3.18916046 [kJ/mol]
      Disp20                       -1.11316490 [mEh]      -0.69852152 [kcal/mol]      -2.92261404 [kJ/mol]
      Disp21                       -0.07985920 [mEh]      -0.05011241 [kcal/mol]      -0.20967031 [kJ/mol]
      Disp22 (SDQ)                 -0.06903972 [mEh]      -0.04332308 [kcal/mol]      -0.18126376 [kJ/mol]
      Disp22 (T)                   -0.07518313 [mEh]      -0.04717813 [kcal/mol]      -0.19739328 [kJ/mol]
      Est. Disp22 (T)              -0.09513950 [mEh]      -0.05970094 [kcal/mol]      -0.24978872 [kJ/mol]
      Exch-Disp20                   0.14251626 [mEh]       0.08943030 [kcal/mol]       0.37417638 [kJ/mol]

  Total HF                        -64.94397918 [mEh]     -40.75296220 [kcal/mol]    -170.51039384 [kJ/mol]
  Total SAPT0                     -65.91462782 [mEh]     -41.36205342 [kcal/mol]    -173.05883150 [kJ/mol]
  Total SAPT2                     -62.40976640 [mEh]     -39.16271967 [kcal/mol]    -163.85681911 [kJ/mol]
  Total SAPT2+                    -62.65380482 [mEh]     -39.31585609 [kcal/mol]    -164.49754190 [kJ/mol]

  Special recipe for scaled SAPT0 (see Manual):
    Electrostatics sSAPT0         -73.73597364 [mEh]     -46.27002201 [kcal/mol]    -193.59377211 [kJ/mol]
    Exchange sSAPT0                30.18480275 [mEh]      18.94124969 [kcal/mol]      79.25018871 [kJ/mol]
    Induction sSAPT0              -20.84848560 [mEh]     -13.08262223 [kcal/mol]     -54.73769141 [kJ/mol]
    Dispersion sSAPT0              -0.96731872 [mEh]      -0.60700166 [kcal/mol]      -2.53969495 [kJ/mol]
  Total sSAPT0                    -65.36697521 [mEh]     -41.01839621 [kcal/mol]    -171.62096976 [kJ/mol]
  --------------------------------------------------------------------------------------------------------

*** Psi4 exiting successfully. Buy a developer a beer!
