                               Psi4 1.9 release

  ==> Input File <==

--------------------------------------------------------------------------
MEMORY 60 GB

molecule dimer {
0 1
F      0.000000     0.000000     0.000000
Li     0.000000     1.584155     0.000000
--
1 1
Li     2.376232     0.000000     0.000000

units ang
no_reorient
no_com
symmetry c1
}

set {
basis        aug-cc-pVTZ
scf_type     df
}

energy("sapt2+")
--------------------------------------------------------------------------

  //              Dimer HF             //
    Molecular point group: c1
  Charge       = 1
  Multiplicity = 1
  Basis Set: AUG-CC-PVTZ
    Blend: AUG-CC-PVTZ
  Basis Set: (AUG-CC-PVTZ AUX)
    Blend: AUG-CC-PVTZ-JKFIT + DEF2-UNIVERSAL-JKFIT
  @DF-RHF Final Energy:  -114.26201201345668
    Total Energy =                       -114.2620120134566832
 Dipole X            :         -9.3321358           13.4712831            4.1391472
 Dipole Y            :         -6.3929041            8.9808573            2.5879532
 Dipole Z            :          0.0000000            0.0000000            0.0000000
 Magnitude           :                                                    4.8816024
  //            Monomer A HF           //
    Molecular point group: c1
  Multiplicity = 1
  Basis Set: AUG-CC-PVTZ
    Blend: AUG-CC-PVTZ
  Basis Set: (AUG-CC-PVTZ AUX)
    Blend: AUG-CC-PVTZ-JKFIT + DEF2-UNIVERSAL-JKFIT
  @DF-RHF Final Energy:  -106.98282914437098
    Total Energy =                       -106.9828291443709816
  //            Monomer B HF           //
    Molecular point group: c1

    Geometry (in Angstrom), charge = 1, multiplicity = 1:

       Center              X                  Y                   Z               Mass
    ------------   -----------------  -----------------  -----------------  -----------------
      Gh(F)           0.000000000000     0.000000000000     0.000000000000    18.998403162730
      Gh(LI)          0.000000000000     1.584155000000     0.000000000000     7.016003436600
         LI           2.376232000000     0.000000000000     0.000000000000     7.016003436600

  Charge       = 1
  Multiplicity = 1
  Basis Set: AUG-CC-PVTZ
    Blend: AUG-CC-PVTZ
  Basis Set: (AUG-CC-PVTZ AUX)
    Blend: AUG-CC-PVTZ-JKFIT + DEF2-UNIVERSAL-JKFIT

    Orbital Energies [Eh]
    ---------------------

    Doubly Occupied:

       1A     -2.792372

  @DF-RHF Final Energy:    -7.23638321843329

   => Energetics <=

    Nuclear Repulsion Energy =              0.0000000000000000
    One-Electron Energy =                  -8.8880227649129804
    Two-Electron Energy =                   1.6516395464796894
    Total Energy =                         -7.2363832184332910
 Dipole X            :         -8.9809396           13.4712831            4.4903435
 Dipole Y            :          0.0000229            0.0000000            0.0000229
 Dipole Z            :          0.0000000            0.0000000            0.0000000
 Magnitude           :                                                    4.4903435

    SAPT Results
  --------------------------------------------------------------------------------------------------------
    Electrostatics                -35.50678229 [mEh]     -22.28084227 [kcal/mol]     -93.22304405 [kJ/mol]
      Elst10,r                    -35.88703884 [mEh]     -22.51945686 [kcal/mol]     -94.22140749 [kJ/mol]
      Elst12,r                      0.38025655 [mEh]       0.23861459 [kcal/mol]       0.99836344 [kJ/mol]

    Exchange                        3.54846658 [mEh]       2.22669640 [kcal/mol]       9.31649772 [kJ/mol]
      Exch10                        2.63918051 [mEh]       1.65611077 [kcal/mol]       6.92916748 [kJ/mol]
      Exch10(S^2)                   2.63733484 [mEh]       1.65495260 [kcal/mol]       6.92432168 [kJ/mol]
      Exch11(S^2)                  -0.01323992 [mEh]      -0.00830818 [kcal/mol]      -0.03476142 [kJ/mol]
      Exch12(S^2)                   0.92252599 [mEh]       0.57889380 [kcal/mol]       2.42209166 [kJ/mol]

    Induction                     -11.55819560 [mEh]      -7.25287724 [kcal/mol]     -30.34603838 [kJ/mol]
      Ind20,r                     -11.77353096 [mEh]      -7.38800222 [kcal/mol]     -30.91140128 [kJ/mol]
      Ind22                        -2.64576990 [mEh]      -1.66024568 [kcal/mol]      -6.94646793 [kJ/mol]
      Exch-Ind20,r                  2.84514642 [mEh]       1.78535633 [kcal/mol]       7.46993088 [kJ/mol]
      Exch-Ind22                    0.63936663 [mEh]       0.40120861 [kcal/mol]       1.67865684 [kJ/mol]
      delta HF,r (2)               -0.62340778 [mEh]      -0.39119429 [kcal/mol]      -1.63675690 [kJ/mol]

    Dispersion                     -0.20714688 [mEh]      -0.12998663 [kcal/mol]      -0.54386406 [kJ/mol]
      Disp20                       -0.17564862 [mEh]      -0.11022117 [kcal/mol]      -0.46116538 [kJ/mol]
      Disp21                       -0.01710906 [mEh]      -0.01073610 [kcal/mol]      -0.04491984 [kJ/mol]
      Disp22 (SDQ)                 -0.01800407 [mEh]      -0.01129772 [kcal/mol]      -0.04726967 [kJ/mol]
      Disp22 (T)                   -0.01456084 [mEh]      -0.00913706 [kcal/mol]      -0.03822947 [kJ/mol]
      Est. Disp22 (T)              -0.01768502 [mEh]      -0.01109752 [kcal/mol]      -0.04643202 [kJ/mol]
      Exch-Disp20                   0.02129988 [mEh]       0.01336588 [kcal/mol]       0.05592284 [kJ/mol]

  Total HF                        -42.79965065 [mEh]     -26.85718626 [kcal/mol]    -112.37046731 [kJ/mol]
  Total SAPT0                     -42.95399938 [mEh]     -26.95404155 [kcal/mol]    -112.77570984 [kJ/mol]
  Total SAPT2                     -43.67086004 [mEh]     -27.40387840 [kcal/mol]    -114.65782725 [kJ/mol]
  Total SAPT2+                    -43.72365819 [mEh]     -27.43700974 [kcal/mol]    -114.79644877 [kJ/mol]

  Special recipe for scaled SAPT0 (see Manual):
    Electrostatics sSAPT0         -35.88703884 [mEh]     -22.51945686 [kcal/mol]     -94.22140749 [kJ/mol]
    Exchange sSAPT0                 2.63918051 [mEh]       1.65611077 [kcal/mol]       6.92916748 [kJ/mol]
    Induction sSAPT0               -9.54581485 [mEh]      -5.99008925 [kcal/mol]     -25.06253343 [kJ/mol]
    Dispersion sSAPT0              -0.15430398 [mEh]      -0.09682721 [kcal/mol]      -0.40512505 [kJ/mol]
  Total sSAPT0                    -42.94797715 [mEh]     -26.95026254 [kcal/mol]    -112.75989849 [kJ/mol]
  --------------------------------------------------------------------------------------------------------

*** Psi4 exiting successfully. Buy a developer a beer!
