                               Psi4 1.9 release

  ==> Input File <==

--------------------------------------------------------------------------
MEMORY 60 GB

molecule dimer {
0 1
F      0.000000     0.000000     0.000000
Li     0.000000     1.584155     0.000000
--
1 1
Li     2.059401     0.000000     0.000000

units ang
no_reorient
no_com
symmetry c1
}

set {
basis        aug-cc-pVTZ
scf_type     df
}

energy("sapt2+")
--------------------------------------------------------------------------

  //              Dimer HF             //
    Molecular point group: c1
  Charge       = 1
  Multiplicity = 1
  Basis Set: AUG-CC-PVTZ
    Blend: AUG-CC-PVTZ
  Basis Set: (AUG-CC-PVTZ AUX)
    Blend: AUG-CC-PVTZ-JKFIT + DEF2-UNIVERSAL-JKFIT
  @DF-RHF Final Energy:  -114.27503480921158
    Total Energy =                       -114.2750348092115757
 Dipole X            :         -8.1648746           11.6751116            3.5102370
 Dipole Y            :         -6.3851062            8.9808573            2.5957511
 Dipole Z            :          0.0000000            0.0000000            0.0000000
 Magnitude           :                                                    4.3657402
  //            Monomer A HF           //
    Molecular point group: c1
  Multiplicity = 1
  Basis Set: AUG-CC-PVTZ
    Blend: AUG-CC-PVTZ
  Basis Set: (AUG-CC-PVTZ AUX)
    Blend: AUG-CC-PVTZ-JKFIT + DEF2-UNIVERSAL-JKFIT
  @DF-RHF Final Energy:  -106.98291464319402
    Total Energy =                       -106.9829146431940217
  //            Monomer B HF           //
    Molecular point group: c1

    Geometry (in Angstrom), charge = 1, multiplicity = 1:

       Center              X                  Y                   Z               Mass
    ------------   -----------------  -----------------  -----------------  -----------------
      Gh(F)           0.000000000000     0.000000000000     0.000000000000    18.998403162730
      Gh(LI)          0.000000000000     1.584155000000     0.000000000000     7.016003436600
         LI           2.059401000000     0.000000000000     0.000000000000     7.016003436600

  Charge       = 1
  Multiplicity = 1
  Basis Set: AUG-CC-PVTZ
    Blend: AUG-CC-PVTZ
  Basis Set: (AUG-CC-PVTZ AUX)
    Blend: AUG-CC-PVTZ-JKFIT + DEF2-UNIVERSAL-JKFIT

    Orbital Energies [Eh]
    ---------------------

    Doubly Occupied:

       1A     -2.792373

  @DF-RHF Final Energy:    -7.23638334032886

   => Energetics <=

    Nuclear Repulsion Energy =              0.0000000000000000
    One-Electron Energy =                  -8.8880216412572643
    Two-Electron Energy =                   1.6516383009284035
    Total Energy =                         -7.2363833403288611
 Dipole X            :         -7.7834626           11.6751116            3.8916491
 Dipole Y            :          0.0000380            0.0000000            0.0000380
 Dipole Z            :          0.0000000            0.0000000            0.0000000
 Magnitude           :                                                    3.8916491

    SAPT Results
  --------------------------------------------------------------------------------------------------------
    Electrostatics                -49.78828658 [mEh]     -31.24262151 [kcal/mol]    -130.71912841 [kJ/mol]
      Elst10,r                    -50.62288049 [mEh]     -31.76633710 [kcal/mol]    -132.91035442 [kJ/mol]
      Elst12,r                      0.83459391 [mEh]       0.52371558 [kcal/mol]       2.19122600 [kJ/mol]

    Exchange                       11.00509182 [mEh]       6.90579938 [kcal/mol]      28.89386459 [kJ/mol]
      Exch10                        8.81707296 [mEh]       5.53279681 [kcal/mol]      23.14922186 [kJ/mol]
      Exch10(S^2)                   8.79675548 [mEh]       5.52004740 [kcal/mol]      23.09587833 [kJ/mol]
      Exch11(S^2)                  -0.05998320 [mEh]      -0.03764003 [kcal/mol]      -0.15748587 [kJ/mol]
      Exch12(S^2)                   2.24800206 [mEh]       1.41064259 [kcal/mol]       5.90212860 [kJ/mol]

    Induction                     -16.63315281 [mEh]     -10.43746097 [kcal/mol]     -43.67033669 [kJ/mol]
      Ind20,r                     -21.41100014 [mEh]     -13.43560543 [kcal/mol]     -56.21457312 [kJ/mol]
      Ind22                        -4.40632382 [mEh]      -2.76500994 [kcal/mol]     -11.56880159 [kJ/mol]
      Exch-Ind20,r                  8.28091531 [mEh]       5.19635281 [kcal/mol]      21.74154014 [kJ/mol]
      Exch-Ind22                    1.70418916 [mEh]       1.06939484 [kcal/mol]       4.47434802 [kJ/mol]
      delta HF,r (2)               -0.80093332 [mEh]      -0.50259325 [kcal/mol]      -2.10285014 [kJ/mol]

    Dispersion                     -0.48484188 [mEh]      -0.30424287 [kcal/mol]      -1.27295219 [kJ/mol]
      Disp20                       -0.42746512 [mEh]      -0.26823841 [kcal/mol]      -1.12230951 [kJ/mol]
      Disp21                       -0.03842674 [mEh]      -0.02411315 [kcal/mol]      -0.10088940 [kJ/mol]
      Disp22 (SDQ)                 -0.03540733 [mEh]      -0.02221844 [kcal/mol]      -0.09296194 [kJ/mol]
      Disp22 (T)                   -0.03238753 [mEh]      -0.02032348 [kcal/mol]      -0.08503344 [kJ/mol]
      Est. Disp22 (T)              -0.04009316 [mEh]      -0.02515884 [kcal/mol]      -0.10526458 [kJ/mol]
      Exch-Disp20                   0.05655047 [mEh]       0.03548596 [kcal/mol]       0.14847324 [kJ/mol]

  Total HF                        -55.73682569 [mEh]     -34.97538616 [kcal/mol]    -146.33701568 [kJ/mol]
  Total SAPT0                     -56.10774033 [mEh]     -35.20813861 [kcal/mol]    -147.31085195 [kJ/mol]
  Total SAPT2                     -55.78726222 [mEh]     -35.00703556 [kcal/mol]    -146.46943678 [kJ/mol]
  Total SAPT2+                    -55.90118946 [mEh]     -35.07852598 [kcal/mol]    -146.76855270 [kJ/mol]

  Special recipe for scaled SAPT0 (see Manual):
    Electrostatics sSAPT0         -50.62288049 [mEh]     -31.76633710 [kcal/mol]    -132.91035442 [kJ/mol]
    Exchange sSAPT0                 8.81707296 [mEh]       5.53279681 [kcal/mol]      23.14922186 [kJ/mol]
    Induction sSAPT0              -13.87350734 [mEh]      -8.70575729 [kcal/mol]     -36.42488850 [kJ/mol]
    Dispersion sSAPT0              -0.37052190 [mEh]      -0.23250600 [kcal/mol]      -0.97280512 [kJ/mol]
  Total sSAPT0                    -56.04983678 [mEh]     -35.17180358 [kcal/mol]    -147.15882619 [kJ/mol]
  --------------------------------------------------------------------------------------------------------

*** Psi4 exiting successfully. Buy a developer a beer!
