                               Psi4 1.9 release

  ==> Input File <==

--------------------------------------------------------------------------
MEMORY 60 GB

molecule dimer {
0 1
F      0.000000     0.000000     0.000000
Li     0.000000     1.584155     0.000000
--
1 1
Li     2.217817     0.000000     0.000000

units ang
no_reorient
no_com
symmetry c1
}

set {
basis        aug-cc-pVTZ
scf_type     df
}

energy("sapt2+")
--------------------------------------------------------------------------

  //              Dimer HF             //
    Molecular point group: c1
  Charge       = 1
  Multiplicity = 1
  Basis Set: AUG-CC-PVTZ
    Blend: AUG-CC-PVTZ
  Basis Set: (AUG-CC-PVTZ AUX)
    Blend: AUG-CC-PVTZ-JKFIT + DEF2-UNIVERSAL-JKFIT
  @DF-RHF Final Energy:  -114.26842007036524
    Total Energy =                       -114.2684200703652380
 Dipole X            :         -8.7510885           12.5732002            3.8221117
 Dipole Y            :         -6.3895123            8.9808573            2.5913449
 Dipole Z            :          0.0000000            0.0000000            0.0000000
 Magnitude           :                                                    4.6177490
  //            Monomer A HF           //
    Molecular point group: c1
  Multiplicity = 1
  Basis Set: AUG-CC-PVTZ
    Blend: AUG-CC-PVTZ
  Basis Set: (AUG-CC-PVTZ AUX)
    Blend: AUG-CC-PVTZ-JKFIT + DEF2-UNIVERSAL-JKFIT
  @DF-RHF Final Energy:  -106.98286884726049
    Total Energy =                       -106.9828688472604910
  //            Monomer B HF           //
    Molecular point group: c1

    Geometry (in Angstrom), charge = 1, multiplicity = 1:

       Center              X                  Y                   Z               Mass
    ------------   -----------------  -----------------  -----------------  -----------------
      Gh(F)           0.000000000000     0.000000000000     0.000000000000    18.998403162730
      Gh(LI)          0.000000000000     1.584155000000     0.000000000000     7.016003436600
         LI           2.217817000000     0.000000000000     0.000000000000     7.016003436600

  Charge       = 1
  Multiplicity = 1
  Basis Set: AUG-CC-PVTZ
    Blend: AUG-CC-PVTZ
  Basis Set: (AUG-CC-PVTZ AUX)
    Blend: AUG-CC-PVTZ-JKFIT + DEF2-UNIVERSAL-JKFIT

    Orbital Energies [Eh]
    ---------------------

    Doubly Occupied:

       1A     -2.792372

  @DF-RHF Final Energy:    -7.23638325429977

   => Energetics <=

    Nuclear Repulsion Energy =              0.0000000000000000
    One-Electron Energy =                  -8.8880216539214025
    Two-Electron Energy =                   1.6516383996216326
    Total Energy =                         -7.2363832542997697
 Dipole X            :         -8.3822072           12.5732002            4.1909930
 Dipole Y            :          0.0000303            0.0000000            0.0000303
 Dipole Z            :          0.0000000            0.0000000            0.0000000
 Magnitude           :                                                    4.1909930

    SAPT Results
  --------------------------------------------------------------------------------------------------------
    Electrostatics                -41.90618451 [mEh]     -26.29652779 [kcal/mol]    -110.02467229 [kJ/mol]
      Elst10,r                    -42.46090936 [mEh]     -26.64462289 [kcal/mol]    -111.48110217 [kJ/mol]
      Elst12,r                      0.55472485 [mEh]       0.34809510 [kcal/mol]       1.45642988 [kJ/mol]

    Exchange                        6.23826816 [mEh]       3.91457237 [kcal/mol]      16.37857081 [kJ/mol]
      Exch10                        4.81315138 [mEh]       3.02029809 [kcal/mol]      12.63692722 [kJ/mol]
      Exch10(S^2)                   4.80704858 [mEh]       3.01646852 [kcal/mol]      12.62090430 [kJ/mol]
      Exch11(S^2)                  -0.02812595 [mEh]      -0.01764930 [kcal/mol]      -0.07384468 [kJ/mol]
      Exch12(S^2)                   1.45324273 [mEh]       0.91192358 [kcal/mol]       3.81548827 [kJ/mol]

    Induction                     -13.87660052 [mEh]      -8.70769829 [kcal/mol]     -36.43300966 [kJ/mol]
      Ind20,r                     -15.74973291 [mEh]      -9.88310661 [kcal/mol]     -41.35091806 [kJ/mol]
      Ind22                        -3.41081858 [mEh]      -2.14032097 [kcal/mol]      -8.95510295 [kJ/mol]
      Exch-Ind20,r                  4.86891134 [mEh]       3.05528800 [kcal/mol]      12.78332497 [kJ/mol]
      Exch-Ind22                    1.05442888 [mEh]       0.66166411 [kcal/mol]       2.76840265 [kJ/mol]
      delta HF,r (2)               -0.63938926 [mEh]      -0.40122282 [kcal/mol]      -1.67871627 [kJ/mol]

    Dispersion                     -0.31458304 [mEh]      -0.19740384 [kcal/mol]      -0.82593766 [kJ/mol]
      Disp20                       -0.27201706 [mEh]      -0.17069328 [kcal/mol]      -0.71418069 [kJ/mol]
      Disp21                       -0.02572962 [mEh]      -0.01614558 [kcal/mol]      -0.06755311 [kJ/mol]
      Disp22 (SDQ)                 -0.02530080 [mEh]      -0.01587649 [kcal/mol]      -0.06642723 [kJ/mol]
      Disp22 (T)                   -0.02173553 [mEh]      -0.01363925 [kcal/mol]      -0.05706663 [kJ/mol]
      Est. Disp22 (T)              -0.02653233 [mEh]      -0.01664929 [kcal/mol]      -0.06966062 [kJ/mol]
      Exch-Disp20                   0.03499677 [mEh]       0.02196080 [kcal/mol]       0.09188399 [kJ/mol]

  Total HF                        -49.16796880 [mEh]     -30.85336623 [kcal/mol]    -129.09048431 [kJ/mol]
  Total SAPT0                     -49.40498910 [mEh]     -31.00209871 [kcal/mol]    -129.71278101 [kJ/mol]
  Total SAPT2                     -49.78153717 [mEh]     -31.23838619 [kcal/mol]    -130.70140783 [kJ/mol]
  Total SAPT2+                    -49.85909991 [mEh]     -31.28705755 [kcal/mol]    -130.90504879 [kJ/mol]

  Special recipe for scaled SAPT0 (see Manual):
    Electrostatics sSAPT0         -42.46090936 [mEh]     -26.64462289 [kcal/mol]    -111.48110217 [kJ/mol]
    Exchange sSAPT0                 4.81315138 [mEh]       3.02029809 [kcal/mol]      12.63692722 [kJ/mol]
    Induction sSAPT0              -11.50164324 [mEh]      -7.21739010 [kcal/mol]     -30.19756017 [kJ/mol]
    Dispersion sSAPT0              -0.23688683 [mEh]      -0.14864873 [kcal/mol]      -0.62194630 [kJ/mol]
  Total sSAPT0                    -49.38628805 [mEh]     -30.99036363 [kcal/mol]    -129.66368142 [kJ/mol]
  --------------------------------------------------------------------------------------------------------

*** Psi4 exiting successfully. Buy a developer a beer!
