                               Psi4 1.9 release

  ==> Input File <==

--------------------------------------------------------------------------
MEMORY 60 GB

molecule dimer {
0 1
F      0.000000     0.000000     0.000000
Li     0.000000     1.584155     0.000000
--
1 1
Li     1.584155     0.000000     0.000000

units ang
no_reorient
no_com
symmetry c1
}

set {
basis        aug-cc-pVTZ
scf_type     df
}

energy("sapt2+")
--------------------------------------------------------------------------

  //              Dimer HF             //
    Molecular point group: c1
  Charge       = 1
  Multiplicity = 1
  Basis Set: AUG-CC-PVTZ
    Blend: AUG-CC-PVTZ
  Basis Set: (AUG-CC-PVTZ AUX)
    Blend: AUG-CC-PVTZ-JKFIT + DEF2-UNIVERSAL-JKFIT
  @DF-RHF Final Energy:  -114.28115868539956
    Total Energy =                       -114.2811586853995607
 Dipole X            :         -6.3649372            8.9808573            2.6159201
 Dipole Y            :         -6.3649372            8.9808573            2.6159201
 Dipole Z            :         -0.0000000            0.0000000           -0.0000000
 Magnitude           :                                                    3.6994697
  //            Monomer A HF           //
    Molecular point group: c1
  Multiplicity = 1
  Basis Set: AUG-CC-PVTZ
    Blend: AUG-CC-PVTZ
  Basis Set: (AUG-CC-PVTZ AUX)
    Blend: AUG-CC-PVTZ-JKFIT + DEF2-UNIVERSAL-JKFIT
  @DF-RHF Final Energy:  -106.98303637483119
    Total Energy =                       -106.9830363748311868
  //            Monomer B HF           //
    Molecular point group: c1

    Geometry (in Angstrom), charge = 1, multiplicity = 1:

       Center              X                  Y                   Z               Mass
    ------------   -----------------  -----------------  -----------------  -----------------
      Gh(F)           0.000000000000     0.000000000000     0.000000000000    18.998403162730
      Gh(LI)          0.000000000000     1.584155000000     0.000000000000     7.016003436600
         LI           1.584155000000     0.000000000000     0.000000000000     7.016003436600

  Charge       = 1
  Multiplicity = 1
  Basis Set: AUG-CC-PVTZ
    Blend: AUG-CC-PVTZ
  Basis Set: (AUG-CC-PVTZ AUX)
    Blend: AUG-CC-PVTZ-JKFIT + DEF2-UNIVERSAL-JKFIT

    Orbital Energies [Eh]
    ---------------------

    Doubly Occupied:

       1A     -2.792367

  @DF-RHF Final Energy:    -7.23638354326400

   => Energetics <=

    Nuclear Repulsion Energy =              0.0000000000000000
    One-Electron Energy =                  -8.8880332566051816
    Two-Electron Energy =                   1.6516497133411812
    Total Energy =                         -7.2363835432640009
 Dipole X            :         -5.9872472            8.9808573            2.9936101
 Dipole Y            :          0.0000597            0.0000000            0.0000597
 Dipole Z            :         -0.0000000            0.0000000           -0.0000000
 Magnitude           :                                                    2.9936101

    SAPT Results
  --------------------------------------------------------------------------------------------------------
    Electrostatics                -86.89018087 [mEh]     -54.52441168 [kcal/mol]    -228.13013845 [kJ/mol]
      Elst10,r                    -90.15902774 [mEh]     -56.57564405 [kcal/mol]    -236.71249472 [kJ/mol]
      Elst12,r                      3.26884687 [mEh]       2.05123238 [kcal/mol]       8.58235627 [kJ/mol]

    Exchange                       62.94461152 [mEh]      39.49834005 [kcal/mol]     165.26105477 [kJ/mol]
      Exch10                       56.61793931 [mEh]      35.52829330 [kcal/mol]     148.65037917 [kJ/mol]
      Exch10(S^2)                  55.82250870 [mEh]      35.02915306 [kcal/mol]     146.56197641 [kJ/mol]
      Exch11(S^2)                  -0.54963532 [mEh]      -0.34490137 [kcal/mol]      -1.44306734 [kJ/mol]
      Exch12(S^2)                   6.87630754 [mEh]       4.31494812 [kcal/mol]      18.05374295 [kJ/mol]

    Induction                     -31.52192420 [mEh]     -19.78030607 [kcal/mol]     -82.76080058 [kJ/mol]
      Ind20,r                     -59.38895550 [mEh]     -37.26713222 [kcal/mol]    -155.92568119 [kJ/mol]
      Ind22                        -9.32593436 [mEh]      -5.85211216 [kcal/mol]     -24.48523728 [kJ/mol]
      Exch-Ind20,r                 38.21966027 [mEh]      23.98319890 [kcal/mol]     100.34570421 [kJ/mol]
      Exch-Ind22                    6.00168903 [mEh]       3.76611673 [kcal/mol]      15.75743238 [kJ/mol]
      delta HF,r (2)               -7.02838364 [mEh]      -4.41037732 [kcal/mol]     -18.45301870 [kJ/mol]

    Dispersion                     -1.99828987 [mEh]      -1.25394583 [kcal/mol]      -5.24650934 [kJ/mol]
      Disp20                       -1.86501339 [mEh]      -1.17031357 [kcal/mol]      -4.89659198 [kJ/mol]
      Disp21                       -0.10450154 [mEh]      -0.06557571 [kcal/mol]      -0.27436875 [kJ/mol]
      Disp22 (SDQ)                 -0.09793236 [mEh]      -0.06145348 [kcal/mol]      -0.25712137 [kJ/mol]
      Disp22 (T)                   -0.12618844 [mEh]      -0.07918444 [kcal/mol]      -0.33130772 [kJ/mol]
      Est. Disp22 (T)              -0.14919667 [mEh]      -0.09362232 [kcal/mol]      -0.39171581 [kJ/mol]
      Exch-Disp20                   0.21835409 [mEh]       0.13701926 [kcal/mol]       0.57328857 [kJ/mol]

  Total HF                        -61.73876730 [mEh]     -38.74166138 [kcal/mol]    -162.09511123 [kJ/mol]
  Total SAPT0                     -63.38542661 [mEh]     -39.77495570 [kcal/mol]    -166.41841463 [kJ/mol]
  Total SAPT2                     -57.11415286 [mEh]     -35.83967200 [kcal/mol]    -149.95318766 [kJ/mol]
  Total SAPT2+                    -57.46578342 [mEh]     -36.06032352 [kcal/mol]    -150.87639359 [kJ/mol]

  Special recipe for scaled SAPT0 (see Manual):
    Electrostatics sSAPT0         -90.15902774 [mEh]     -56.57564405 [kcal/mol]    -236.71249472 [kJ/mol]
    Exchange sSAPT0                56.61793931 [mEh]      35.52829330 [kcal/mol]     148.65037917 [kJ/mol]
    Induction sSAPT0              -26.54047969 [mEh]     -16.65440244 [kcal/mol]     -69.68201982 [kJ/mol]
    Dispersion sSAPT0              -1.63719150 [mEh]      -1.02735318 [kcal/mol]      -4.29844569 [kJ/mol]
  Total sSAPT0                    -61.71875962 [mEh]     -38.72910637 [kcal/mol]    -162.04258106 [kJ/mol]
  --------------------------------------------------------------------------------------------------------

*** Psi4 exiting successfully. Buy a developer a beer!
