                               Psi4 1.9 release

  ==> Input File <==

--------------------------------------------------------------------------
MEMORY 60 GB

molecule dimer {
0 1
F      0.000000     0.000000     0.000000
Li     0.000000     1.584155     0.000000
--
1 1
Li     3.168310     0.000000     0.000000

units ang
no_reorient
no_com
symmetry c1
}

set {
basis        aug-cc-pVTZ
scf_type     df
}

energy("sapt2+")
--------------------------------------------------------------------------

  //              Dimer HF             //
    Molecular point group: c1
  Charge       = 1
  Multiplicity = 1
  Basis Set: AUG-CC-PVTZ
    Blend: AUG-CC-PVTZ
  Basis Set: (AUG-CC-PVTZ AUX)
    Blend: AUG-CC-PVTZ-JKFIT + DEF2-UNIVERSAL-JKFIT
  @DF-RHF Final Energy:  -114.23968025131920
    Total Energy =                       -114.2396802513192000
 Dipole X            :        -12.2097843           17.9617145            5.7519303
 Dipole Y            :         -6.4005209            8.9808573            2.5803364
 Dipole Z            :         -0.0000000            0.0000000           -0.0000000
 Magnitude           :                                                    6.3041921
  //            Monomer A HF           //
    Molecular point group: c1
  Multiplicity = 1
  Basis Set: AUG-CC-PVTZ
    Blend: AUG-CC-PVTZ
  Basis Set: (AUG-CC-PVTZ AUX)
    Blend: AUG-CC-PVTZ-JKFIT + DEF2-UNIVERSAL-JKFIT
  @DF-RHF Final Energy:  -106.98272342060895
    Total Energy =                       -106.9827234206089486
  //            Monomer B HF           //
    Molecular point group: c1

    Geometry (in Angstrom), charge = 1, multiplicity = 1:

       Center              X                  Y                   Z               Mass
    ------------   -----------------  -----------------  -----------------  -----------------
      Gh(F)           0.000000000000     0.000000000000     0.000000000000    18.998403162730
      Gh(LI)          0.000000000000     1.584155000000     0.000000000000     7.016003436600
         LI           3.168310000000     0.000000000000     0.000000000000     7.016003436600

  Charge       = 1
  Multiplicity = 1
  Basis Set: AUG-CC-PVTZ
    Blend: AUG-CC-PVTZ
  Basis Set: (AUG-CC-PVTZ AUX)
    Blend: AUG-CC-PVTZ-JKFIT + DEF2-UNIVERSAL-JKFIT

    Orbital Energies [Eh]
    ---------------------

    Doubly Occupied:

       1A     -2.792372

  @DF-RHF Final Energy:    -7.23638299175277

   => Energetics <=

    Nuclear Repulsion Energy =              0.0000000000000000
    One-Electron Energy =                  -8.8880226148175439
    Two-Electron Energy =                   1.6516396230647732
    Total Energy =                         -7.2363829917527704
 Dipole X            :        -11.9745223           17.9617145            5.9871923
 Dipole Y            :          0.0000192            0.0000000            0.0000192
 Dipole Z            :          0.0000000            0.0000000            0.0000000
 Magnitude           :                                                    5.9871923

    SAPT Results
  --------------------------------------------------------------------------------------------------------
    Electrostatics                -16.99808263 [mEh]     -10.66645789 [kcal/mol]     -44.62845980 [kJ/mol]
      Elst10,r                    -17.09614773 [mEh]     -10.72799467 [kcal/mol]     -44.88592968 [kJ/mol]
      Elst12,r                      0.09806510 [mEh]       0.06153678 [kcal/mol]       0.25746988 [kJ/mol]

    Exchange                        0.22297638 [mEh]       0.13991979 [kcal/mol]       0.58542440 [kJ/mol]
      Exch10                        0.14081462 [mEh]       0.08836251 [kcal/mol]       0.36970874 [kJ/mol]
      Exch10(S^2)                   0.14080926 [mEh]       0.08835915 [kcal/mol]       0.36969467 [kJ/mol]
      Exch11(S^2)                  -0.00037494 [mEh]      -0.00023528 [kcal/mol]      -0.00098440 [kJ/mol]
      Exch12(S^2)                   0.08253669 [mEh]       0.05179256 [kcal/mol]       0.21670006 [kJ/mol]

    Induction                      -4.38903249 [mEh]      -2.75415947 [kcal/mol]     -11.52340322 [kJ/mol]
      Ind20,r                      -3.41939201 [mEh]      -2.14570088 [kcal/mol]      -8.97761249 [kJ/mol]
      Ind22                        -0.81586887 [mEh]      -0.51196544 [kcal/mol]      -2.14206341 [kJ/mol]
      Exch-Ind20,r                  0.19003402 [mEh]       0.11924815 [kcal/mol]       0.49893424 [kJ/mol]
      Exch-Ind22                    0.04534222 [mEh]       0.02845268 [kcal/mol]       0.11904599 [kJ/mol]
      delta HF,r (2)               -0.38914786 [mEh]      -0.24419397 [kcal/mol]      -1.02170756 [kJ/mol]

    Dispersion                     -0.03238086 [mEh]      -0.02031930 [kcal/mol]      -0.08501594 [kJ/mol]
      Disp20                       -0.02539621 [mEh]      -0.01593636 [kcal/mol]      -0.06667775 [kJ/mol]
      Disp21                       -0.00244231 [mEh]      -0.00153257 [kcal/mol]      -0.00641227 [kJ/mol]
      Disp22 (SDQ)                 -0.00324329 [mEh]      -0.00203519 [kcal/mol]      -0.00851525 [kJ/mol]
      Disp22 (T)                   -0.00224202 [mEh]      -0.00140689 [kcal/mol]      -0.00588641 [kJ/mol]
      Est. Disp22 (T)              -0.00271230 [mEh]      -0.00170199 [kcal/mol]      -0.00712114 [kJ/mol]
      Exch-Disp20                   0.00141324 [mEh]       0.00088682 [kcal/mol]       0.00371046 [kJ/mol]

  Total HF                        -20.57383896 [mEh]     -12.91027886 [kcal/mol]     -54.01660674 [kJ/mol]
  Total SAPT0                     -20.59782193 [mEh]     -12.92532840 [kcal/mol]     -54.07957402 [kJ/mol]
  Total SAPT2                     -21.18812172 [mEh]     -13.29574711 [kcal/mol]     -55.62940591 [kJ/mol]
  Total SAPT2+                    -21.19651961 [mEh]     -13.30101686 [kcal/mol]     -55.65145456 [kJ/mol]

  Special recipe for scaled SAPT0 (see Manual):
    Electrostatics sSAPT0         -17.09614773 [mEh]     -10.72799467 [kcal/mol]     -44.88592968 [kJ/mol]
    Exchange sSAPT0                 0.14081462 [mEh]       0.08836251 [kcal/mol]       0.36970874 [kJ/mol]
    Induction sSAPT0               -3.61848415 [mEh]      -2.27063309 [kcal/mol]      -9.50032883 [kJ/mol]
    Dispersion sSAPT0              -0.02398281 [mEh]      -0.01504944 [kcal/mol]      -0.06296686 [kJ/mol]
  Total sSAPT0                    -20.59780007 [mEh]     -12.92531468 [kcal/mol]     -54.07951663 [kJ/mol]
  --------------------------------------------------------------------------------------------------------

*** Psi4 exiting successfully. Buy a developer a beer!
