                               Psi4 1.9 release

  ==> Input File <==

--------------------------------------------------------------------------
MEMORY 60 GB

molecule dimer {
0 1
F      0.000000     0.000000     0.000000
Li     0.000000     1.584155     0.000000
--
1 1
Li     1.900986     0.000000     0.000000

units ang
no_reorient
no_com
symmetry c1
}

set {
basis        aug-cc-pVTZ
scf_type     df
}

energy("sapt2+")
--------------------------------------------------------------------------

  //              Dimer HF             //
    Molecular point group: c1
  Charge       = 1
  Multiplicity = 1
  Basis Set: AUG-CC-PVTZ
    Blend: AUG-CC-PVTZ
  Basis Set: (AUG-CC-PVTZ AUX)
    Blend: AUG-CC-PVTZ-JKFIT + DEF2-UNIVERSAL-JKFIT
  @DF-RHF Final Energy:  -114.28097406274145
    Total Energy =                       -114.2809740627414499
 Dipole X            :         -7.5721618           10.7770287            3.2048669
 Dipole Y            :         -6.3795673            8.9808573            2.6012900
 Dipole Z            :         -0.0000000            0.0000000           -0.0000000
 Magnitude           :                                                    4.1276969
  //            Monomer A HF           //
    Molecular point group: c1
  Multiplicity = 1
  Basis Set: AUG-CC-PVTZ
    Blend: AUG-CC-PVTZ
  Basis Set: (AUG-CC-PVTZ AUX)
    Blend: AUG-CC-PVTZ-JKFIT + DEF2-UNIVERSAL-JKFIT
  @DF-RHF Final Energy:  -106.98296292728148
    Total Energy =                       -106.9829629272814771
  //            Monomer B HF           //
    Molecular point group: c1

    Geometry (in Angstrom), charge = 1, multiplicity = 1:

       Center              X                  Y                   Z               Mass
    ------------   -----------------  -----------------  -----------------  -----------------
      Gh(F)           0.000000000000     0.000000000000     0.000000000000    18.998403162730
      Gh(LI)          0.000000000000     1.584155000000     0.000000000000     7.016003436600
         LI           1.900986000000     0.000000000000     0.000000000000     7.016003436600

  Charge       = 1
  Multiplicity = 1
  Basis Set: AUG-CC-PVTZ
    Blend: AUG-CC-PVTZ
  Basis Set: (AUG-CC-PVTZ AUX)
    Blend: AUG-CC-PVTZ-JKFIT + DEF2-UNIVERSAL-JKFIT

    Orbital Energies [Eh]
    ---------------------

    Doubly Occupied:

       1A     -2.792372

  @DF-RHF Final Energy:    -7.23638343236714

   => Energetics <=

    Nuclear Repulsion Energy =              0.0000000000000000
    One-Electron Energy =                  -8.8880233861013132
    Two-Electron Energy =                   1.6516399537341770
    Total Energy =                         -7.2363834323671359
 Dipole X            :         -7.1847233           10.7770287            3.5923055
 Dipole Y            :          0.0000448            0.0000000            0.0000448
 Dipole Z            :         -0.0000000            0.0000000           -0.0000000
 Magnitude           :                                                    3.5923055

    SAPT Results
  --------------------------------------------------------------------------------------------------------
    Electrostatics                -59.55065603 [mEh]     -37.36860083 [kcal/mol]    -156.35022587 [kJ/mol]
      Elst10,r                    -60.83939588 [mEh]     -38.17729729 [kcal/mol]    -159.73381187 [kJ/mol]
      Elst12,r                      1.28873985 [mEh]       0.80869646 [kcal/mol]       3.38358600 [kJ/mol]

    Exchange                       19.51555535 [mEh]      12.24619587 [kcal/mol]      51.23808350 [kJ/mol]
      Exch10                       16.24919341 [mEh]      10.19652281 [kcal/mol]      42.66225143 [kJ/mol]
      Exch10(S^2)                  16.18097875 [mEh]      10.15371746 [kcal/mol]      42.48315386 [kJ/mol]
      Exch11(S^2)                  -0.12765085 [mEh]      -0.08010212 [kcal/mol]      -0.33514726 [kJ/mol]
      Exch12(S^2)                   3.39401278 [mEh]       2.12977518 [kcal/mol]       8.91097934 [kJ/mol]

    Induction                     -20.04024456 [mEh]     -12.57544332 [kcal/mol]     -52.61565484 [kJ/mol]
      Ind20,r                     -29.58675830 [mEh]     -18.56597113 [kcal/mol]     -77.68002322 [kJ/mol]
      Ind22                        -5.68822520 [mEh]      -3.56941520 [kcal/mol]     -14.93443322 [kJ/mol]
      Exch-Ind20,r                 13.96827350 [mEh]       8.76522395 [kcal/mol]      36.67369702 [kJ/mol]
      Exch-Ind22                    2.68548127 [mEh]       1.68516494 [kcal/mol]       7.05073011 [kJ/mol]
      delta HF,r (2)               -1.41901583 [mEh]      -0.89044587 [kcal/mol]      -3.72562554 [kJ/mol]

    Dispersion                     -0.75978708 [mEh]      -0.47677359 [kcal/mol]      -1.99482070 [kJ/mol]
      Disp20                       -0.68274515 [mEh]      -0.42842905 [kcal/mol]      -1.79254715 [kJ/mol]
      Disp21                       -0.05641293 [mEh]      -0.03539965 [kcal/mol]      -0.14811213 [kJ/mol]
      Disp22 (SDQ)                 -0.04940308 [mEh]      -0.03100090 [kcal/mol]      -0.12970778 [kJ/mol]
      Disp22 (T)                   -0.04947519 [mEh]      -0.03104615 [kcal/mol]      -0.12989709 [kJ/mol]
      Est. Disp22 (T)              -0.06156939 [mEh]      -0.03863537 [kcal/mol]      -0.16165041 [kJ/mol]
      Exch-Disp20                   0.09034348 [mEh]       0.05669139 [kcal/mol]       0.23719677 [kJ/mol]

  Total HF                        -61.62770309 [mEh]     -38.67196754 [kcal/mol]    -161.80351218 [kJ/mol]
  Total SAPT0                     -62.22010477 [mEh]     -39.04370520 [kcal/mol]    -163.35886256 [kJ/mol]
  Total SAPT2                     -60.66774692 [mEh]     -38.06958594 [kcal/mol]    -159.28314759 [kJ/mol]
  Total SAPT2+                    -60.83513232 [mEh]     -38.17462187 [kcal/mol]    -159.72261791 [kJ/mol]

  Special recipe for scaled SAPT0 (see Manual):
    Electrostatics sSAPT0         -60.83939588 [mEh]     -38.17729729 [kcal/mol]    -159.73381187 [kJ/mol]
    Exchange sSAPT0                16.24919341 [mEh]      10.19652281 [kcal/mol]      42.66225143 [kJ/mol]
    Induction sSAPT0              -16.86009536 [mEh]     -10.57986957 [kcal/mol]     -44.26617427 [kJ/mol]
    Dispersion sSAPT0              -0.59125426 [mEh]      -0.37101765 [kcal/mol]      -1.55233785 [kJ/mol]
  Total sSAPT0                    -62.04155208 [mEh]     -38.93166170 [kcal/mol]    -162.89007256 [kJ/mol]
  --------------------------------------------------------------------------------------------------------

*** Psi4 exiting successfully. Buy a developer a beer!
