                               Psi4 1.9 release

  ==> Input File <==

--------------------------------------------------------------------------
MEMORY 60 GB

molecule dimer {
0 1
Li     0.000000     0.000000     0.000000
F      0.000000     1.584155     0.000000
--
-1 1
F      1.584155     0.000000     0.000000

units ang
no_reorient
no_com
symmetry c1
}

set {
basis        aug-cc-pVTZ
scf_type     df
}

energy("sapt2+")
--------------------------------------------------------------------------

  //              Dimer HF             //
    Molecular point group: c1
  Charge       = -1
  Multiplicity = 1
  Basis Set: AUG-CC-PVTZ
    Blend: AUG-CC-PVTZ
  Basis Set: (AUG-CC-PVTZ AUX)
    Blend: AUG-CC-PVTZ-JKFIT + DEF2-UNIVERSAL-JKFIT
  @DF-RHF Final Energy:  -206.47347409290376
    Total Energy =                       -206.4734740929037571
 Dipole X            :        -29.5117402           26.9425718           -2.5691684
 Dipole Y            :        -29.5117402           26.9425718           -2.5691684
 Dipole Z            :         -0.0000000            0.0000000           -0.0000000
 Magnitude           :                                                    3.6333528
  //            Monomer A HF           //
    Molecular point group: c1
  Multiplicity = 1
  Basis Set: AUG-CC-PVTZ
    Blend: AUG-CC-PVTZ
  Basis Set: (AUG-CC-PVTZ AUX)
    Blend: AUG-CC-PVTZ-JKFIT + DEF2-UNIVERSAL-JKFIT
  @DF-RHF Final Energy:  -106.98300925190156
    Total Energy =                       -106.9830092519015636
  //            Monomer B HF           //
    Molecular point group: c1

    Geometry (in Angstrom), charge = -1, multiplicity = 1:

       Center              X                  Y                   Z               Mass
    ------------   -----------------  -----------------  -----------------  -----------------
      Gh(LI)          0.000000000000     0.000000000000     0.000000000000     7.016003436600
      Gh(F)           0.000000000000     1.584155000000     0.000000000000    18.998403162730
         F            1.584155000000     0.000000000000     0.000000000000    18.998403162730

  Charge       = -1
  Multiplicity = 1
  Basis Set: AUG-CC-PVTZ
    Blend: AUG-CC-PVTZ
  Basis Set: (AUG-CC-PVTZ AUX)
    Blend: AUG-CC-PVTZ-JKFIT + DEF2-UNIVERSAL-JKFIT

    Orbital Energies [Eh]
    ---------------------

    Doubly Occupied:

       1A    -25.833746     2A     -1.076022     3A     -0.181001
       4A     -0.180973     5A     -0.180964

  @DF-RHF Final Energy:   -99.45091466491834

   => Energetics <=

    Nuclear Repulsion Energy =              0.0000000000000000
    One-Electron Energy =                -143.9964147858189847
    Two-Electron Energy =                  44.5455001209006483
    Total Energy =                        -99.4509146649183435
 Dipole X            :        -29.9367793           26.9425718           -2.9942075
 Dipole Y            :          0.0001168            0.0000000            0.0001168
 Dipole Z            :         -0.0000000            0.0000000           -0.0000000
 Magnitude           :                                                    2.9942075

    SAPT Results
  --------------------------------------------------------------------------------------------------------
    Electrostatics               -104.11856495 [mEh]     -65.33538590 [kcal/mol]    -273.36325461 [kJ/mol]
      Elst10,r                   -101.17358182 [mEh]     -63.48738109 [kcal/mol]    -265.63120247 [kJ/mol]
      Elst12,r                     -2.94498313 [mEh]      -1.84800481 [kcal/mol]      -7.73205214 [kJ/mol]

    Exchange                      111.98770457 [mEh]      70.27334557 [kcal/mol]     294.02367785 [kJ/mol]
      Exch10                       93.29562970 [mEh]      58.54389150 [kcal/mol]     244.94764202 [kJ/mol]
      Exch10(S^2)                  91.30962192 [mEh]      57.29765280 [kcal/mol]     239.73337934 [kJ/mol]
      Exch11(S^2)                  -1.89843836 [mEh]      -1.19128806 [kcal/mol]      -4.98434924 [kJ/mol]
      Exch12(S^2)                  20.59051324 [mEh]      12.92074213 [kcal/mol]      54.06038507 [kJ/mol]

    Induction                     -36.06402632 [mEh]     -22.63051818 [kcal/mol]     -94.68608805 [kJ/mol]
      Ind20,r                     -73.89466859 [mEh]     -46.36960460 [kcal/mol]    -194.01042565 [kJ/mol]
      Ind22                       -18.61397003 [mEh]     -11.68044254 [kcal/mol]     -48.87097159 [kJ/mol]
      Exch-Ind20,r                 56.45987209 [mEh]      35.42910462 [kcal/mol]     148.23537374 [kJ/mol]
      Exch-Ind22                   14.22216768 [mEh]       8.92454496 [kcal/mol]      37.34029609 [kJ/mol]
      delta HF,r (2)              -14.23742746 [mEh]      -8.93412061 [kcal/mol]     -37.38036065 [kJ/mol]

    Dispersion                    -12.00060238 [mEh]      -7.53049168 [kcal/mol]     -31.50757721 [kJ/mol]
      Disp20                      -12.27533333 [mEh]      -7.70288796 [kcal/mol]     -32.22888322 [kJ/mol]
      Disp21                        0.53343746 [mEh]       0.33473706 [kcal/mol]       1.40053987 [kJ/mol]
      Disp22 (SDQ)                 -2.09221494 [mEh]      -1.31288469 [kcal/mol]      -5.49310956 [kJ/mol]
      Disp22 (T)                   -2.11359693 [mEh]      -1.32630210 [kcal/mol]      -5.54924798 [kJ/mol]
      Est. Disp22 (T)              -2.50751353 [mEh]      -1.57348849 [kcal/mol]      -6.58347585 [kJ/mol]
      Exch-Disp20                   4.34102195 [mEh]       2.72403240 [kcal/mol]      11.39735155 [kJ/mol]

  Total HF                        -39.55017608 [mEh]     -24.81811018 [kcal/mol]    -103.83897300 [kJ/mol]
  Total SAPT0                     -47.48448747 [mEh]     -29.79696574 [kcal/mol]    -124.67050467 [kJ/mol]
  Total SAPT2                     -36.12919808 [mEh]     -22.67141407 [kcal/mol]     -94.85719648 [kJ/mol]
  Total SAPT2+                    -40.19548907 [mEh]     -25.22305020 [kcal/mol]    -105.53324202 [kJ/mol]

  Special recipe for scaled SAPT0 (see Manual):
    Electrostatics sSAPT0        -101.17358182 [mEh]     -63.48738109 [kcal/mol]    -265.63120247 [kJ/mol]
    Exchange sSAPT0                93.29562970 [mEh]      58.54389150 [kcal/mol]     244.94764202 [kJ/mol]
    Induction sSAPT0              -27.90746374 [mEh]     -17.51219789 [kcal/mol]     -73.27103597 [kJ/mol]
    Dispersion sSAPT0              -7.64485081 [mEh]      -4.79721631 [kcal/mol]     -20.07155304 [kJ/mol]
  Total sSAPT0                    -43.43026668 [mEh]     -27.25290379 [kcal/mol]    -114.02614946 [kJ/mol]
  --------------------------------------------------------------------------------------------------------

*** Psi4 exiting successfully. Buy a developer a beer!
