                               Psi4 1.9 release

  ==> Input File <==

--------------------------------------------------------------------------
MEMORY 60 GB

molecule dimer {
0 1
Li     0.000000     0.000000     0.000000
F      0.000000     1.584155     0.000000
--
-1 1
F      1.742571     0.000000     0.000000

units ang
no_reorient
no_com
symmetry c1
}

set {
basis        aug-cc-pVTZ
scf_type     df
}

energy("sapt2+")
--------------------------------------------------------------------------

  //              Dimer HF             //
    Molecular point group: c1
  Charge       = -1
  Multiplicity = 1
  Basis Set: AUG-CC-PVTZ
    Blend: AUG-CC-PVTZ
  Basis Set: (AUG-CC-PVTZ AUX)
    Blend: AUG-CC-PVTZ-JKFIT + DEF2-UNIVERSAL-JKFIT
  @DF-RHF Final Energy:  -206.48029141688946
    Total Energy =                       -206.4802914168894574
 Dipole X            :        -32.5074631           29.6368375           -2.8706256
 Dipole Y            :        -29.5026942           26.9425718           -2.5601223
 Dipole Z            :          0.0000000            0.0000000            0.0000000
 Magnitude           :                                                    3.8463902
  //            Monomer A HF           //
    Molecular point group: c1
  Multiplicity = 1
  Basis Set: AUG-CC-PVTZ
    Blend: AUG-CC-PVTZ
  Basis Set: (AUG-CC-PVTZ AUX)
    Blend: AUG-CC-PVTZ-JKFIT + DEF2-UNIVERSAL-JKFIT
  @DF-RHF Final Energy:  -106.98293757598449
    Total Energy =                       -106.9829375759844936
  //            Monomer B HF           //
    Molecular point group: c1

    Geometry (in Angstrom), charge = -1, multiplicity = 1:

       Center              X                  Y                   Z               Mass
    ------------   -----------------  -----------------  -----------------  -----------------
      Gh(LI)          0.000000000000     0.000000000000     0.000000000000     7.016003436600
      Gh(F)           0.000000000000     1.584155000000     0.000000000000    18.998403162730
         F            1.742571000000     0.000000000000     0.000000000000    18.998403162730

  Charge       = -1
  Multiplicity = 1
  Basis Set: AUG-CC-PVTZ
    Blend: AUG-CC-PVTZ
  Basis Set: (AUG-CC-PVTZ AUX)
    Blend: AUG-CC-PVTZ-JKFIT + DEF2-UNIVERSAL-JKFIT

    Orbital Energies [Eh]
    ---------------------

    Doubly Occupied:

       1A    -25.833763     2A     -1.076035     3A     -0.181021
       4A     -0.180975     5A     -0.180968

  @DF-RHF Final Energy:   -99.45091080174174

   => Energetics <=

    Nuclear Repulsion Energy =              0.0000000000000000
    One-Electron Energy =                -143.9962972598937370
    Two-Electron Energy =                  44.5453864581519952
    Total Energy =                        -99.4509108017417418
 Dipole X            :        -32.9303878           29.6368375           -3.2935503
 Dipole Y            :          0.0001209            0.0000000            0.0001209
 Dipole Z            :          0.0000000            0.0000000            0.0000000
 Magnitude           :                                                    3.2935503

    SAPT Results
  --------------------------------------------------------------------------------------------------------
    Electrostatics                -81.91819724 [mEh]     -51.40444484 [kcal/mol]    -215.07619723 [kJ/mol]
      Elst10,r                    -79.20822091 [mEh]     -49.70390902 [kcal/mol]    -207.96115535 [kJ/mol]
      Elst12,r                     -2.70997633 [mEh]      -1.70053582 [kcal/mol]      -7.11504188 [kJ/mol]

    Exchange                       70.82884501 [mEh]      44.44577126 [kcal/mol]     185.96110695 [kJ/mol]
      Exch10                       56.31277034 [mEh]      35.33679688 [kcal/mol]     147.84915816 [kJ/mol]
      Exch10(S^2)                  55.52624735 [mEh]      34.84324626 [kcal/mol]     145.78414233 [kJ/mol]
      Exch11(S^2)                  -1.20143624 [mEh]      -0.75391262 [kcal/mol]      -3.15437040 [kJ/mol]
      Exch12(S^2)                  15.71751090 [mEh]       9.86288700 [kcal/mol]      41.26631920 [kJ/mol]

    Induction                     -27.63808884 [mEh]     -17.34316258 [kcal/mol]     -72.56379225 [kJ/mol]
      Ind20,r                     -50.97173089 [mEh]     -31.98524403 [kcal/mol]    -133.82626101 [kJ/mol]
      Ind22                       -14.11670657 [mEh]      -8.85836711 [kcal/mol]     -37.06340800 [kJ/mol]
      Exch-Ind20,r                 36.20200562 [mEh]      22.71710150 [kcal/mol]      95.04835266 [kJ/mol]
      Exch-Ind22                   10.02620633 [mEh]       6.29153946 [kcal/mol]      26.32380108 [kJ/mol]
      delta HF,r (2)               -8.77786333 [mEh]      -5.50819240 [kcal/mol]     -23.04627699 [kJ/mol]

    Dispersion                     -9.24711855 [mEh]      -5.80265449 [kcal/mol]     -24.27830640 [kJ/mol]
      Disp20                       -9.05951196 [mEh]      -5.68492958 [kcal/mol]     -23.78574537 [kJ/mol]
      Disp21                        0.27416905 [mEh]       0.17204367 [kcal/mol]       0.71983074 [kJ/mol]
      Disp22 (SDQ)                 -1.66813756 [mEh]      -1.04677212 [kcal/mol]      -4.37969455 [kJ/mol]
      Disp22 (T)                   -1.63416594 [mEh]      -1.02545461 [kcal/mol]      -4.29050209 [kJ/mol]
      Est. Disp22 (T)              -1.95650940 [mEh]      -1.22772818 [kcal/mol]      -5.13681472 [kJ/mol]
      Exch-Disp20                   3.16287132 [mEh]       1.98473172 [kcal/mol]       8.30411751 [kJ/mol]

  Total HF                        -46.44303916 [mEh]     -29.14344707 [kcal/mol]    -121.93618252 [kJ/mol]
  Total SAPT0                     -52.33967980 [mEh]     -32.84364493 [kcal/mol]    -137.41781038 [kJ/mol]
  Total SAPT2                     -44.62408171 [mEh]     -28.00203403 [kcal/mol]    -117.16051039 [kJ/mol]
  Total SAPT2+                    -47.97455962 [mEh]     -30.10449066 [kcal/mol]    -125.95718893 [kJ/mol]

  Special recipe for scaled SAPT0 (see Manual):
    Electrostatics sSAPT0         -79.20822091 [mEh]     -49.70390902 [kcal/mol]    -207.96115535 [kJ/mol]
    Exchange sSAPT0                56.31277034 [mEh]      35.33679688 [kcal/mol]     147.84915816 [kJ/mol]
    Induction sSAPT0              -21.98730266 [mEh]     -13.79724072 [kcal/mol]     -57.72765518 [kJ/mol]
    Dispersion sSAPT0              -5.76032267 [mEh]      -3.61465705 [kcal/mol]     -15.12372510 [kJ/mol]
  Total sSAPT0                    -50.64307590 [mEh]     -31.77900991 [kcal/mol]    -132.96337746 [kJ/mol]
  --------------------------------------------------------------------------------------------------------

*** Psi4 exiting successfully. Buy a developer a beer!
