                               Psi4 1.9 release

  ==> Input File <==

--------------------------------------------------------------------------
MEMORY 60 GB

molecule dimer {
0 1
Li     0.000000     0.000000     0.000000
F      0.000000     1.584155     0.000000
--
-1 1
F      2.376232     0.000000     0.000000

units ang
no_reorient
no_com
symmetry c1
}

set {
basis        aug-cc-pVTZ
scf_type     df
}

energy("sapt2+")
--------------------------------------------------------------------------

  //              Dimer HF             //
    Molecular point group: c1
  Charge       = -1
  Multiplicity = 1
  Basis Set: AUG-CC-PVTZ
    Blend: AUG-CC-PVTZ
  Basis Set: (AUG-CC-PVTZ AUX)
    Blend: AUG-CC-PVTZ-JKFIT + DEF2-UNIVERSAL-JKFIT
  @DF-RHF Final Energy:  -206.46697048924065
    Total Energy =                       -206.4669704892406514
 Dipole X            :        -44.5524895           40.4138492           -4.1386402
 Dipole Y            :        -29.4902055           26.9425718           -2.5476337
 Dipole Z            :          0.0000000            0.0000000            0.0000000
 Magnitude           :                                                    4.8599157
  //            Monomer A HF           //
    Molecular point group: c1
  Multiplicity = 1
  Basis Set: AUG-CC-PVTZ
    Blend: AUG-CC-PVTZ
  Basis Set: (AUG-CC-PVTZ AUX)
    Blend: AUG-CC-PVTZ-JKFIT + DEF2-UNIVERSAL-JKFIT
  @DF-RHF Final Energy:  -106.98273463076076
    Total Energy =                       -106.9827346307607598
  //            Monomer B HF           //
    Molecular point group: c1

    Geometry (in Angstrom), charge = -1, multiplicity = 1:

       Center              X                  Y                   Z               Mass
    ------------   -----------------  -----------------  -----------------  -----------------
      Gh(LI)          0.000000000000     0.000000000000     0.000000000000     7.016003436600
      Gh(F)           0.000000000000     1.584155000000     0.000000000000    18.998403162730
         F            2.376232000000     0.000000000000     0.000000000000    18.998403162730

  Charge       = -1
  Multiplicity = 1
  Basis Set: AUG-CC-PVTZ
    Blend: AUG-CC-PVTZ
  Basis Set: (AUG-CC-PVTZ AUX)
    Blend: AUG-CC-PVTZ-JKFIT + DEF2-UNIVERSAL-JKFIT

    Orbital Energies [Eh]
    ---------------------

    Doubly Occupied:

       1A    -25.833820     2A     -1.076067     3A     -0.181033
       4A     -0.180992     5A     -0.180991

  @DF-RHF Final Energy:   -99.45085839248088

   => Energetics <=

    Nuclear Repulsion Energy =              0.0000000000000000
    One-Electron Energy =                -143.9959106357206906
    Two-Electron Energy =                  44.5450522432398159
    Total Energy =                        -99.4508583924808818
 Dipole X            :        -44.9035884           40.4138492           -4.4897392
 Dipole Y            :          0.0000077            0.0000000            0.0000077
 Dipole Z            :          0.0000000            0.0000000            0.0000000
 Magnitude           :                                                    4.4897392

    SAPT Results
  --------------------------------------------------------------------------------------------------------
    Electrostatics                -33.50669912 [mEh]     -21.02577113 [kcal/mol]     -87.97182643 [kJ/mol]
      Elst10,r                    -32.86332039 [mEh]     -20.62204488 [kcal/mol]     -86.28263579 [kJ/mol]
      Elst12,r                     -0.64337874 [mEh]      -0.40372625 [kcal/mol]      -1.68919064 [kJ/mol]

    Exchange                       12.30774637 [mEh]       7.72322745 [kcal/mol]      32.31398365 [kJ/mol]
      Exch10                        8.30424748 [mEh]       5.21099397 [kcal/mol]      21.80279875 [kJ/mol]
      Exch10(S^2)                   8.28087310 [mEh]       5.19632632 [kcal/mol]      21.74142933 [kJ/mol]
      Exch11(S^2)                  -0.21821549 [mEh]      -0.13693228 [kcal/mol]      -0.57292468 [kJ/mol]
      Exch12(S^2)                   4.22171438 [mEh]       2.64916577 [kcal/mol]      11.08410958 [kJ/mol]

    Induction                     -11.39576471 [mEh]      -7.15095032 [kcal/mol]     -29.91957614 [kJ/mol]
      Ind20,r                     -13.44255786 [mEh]      -8.43533241 [kcal/mol]     -35.29343080 [kJ/mol]
      Ind22                        -4.50144824 [mEh]      -2.82470141 [kcal/mol]     -11.81855071 [kJ/mol]
      Exch-Ind20,r                  5.74581998 [mEh]       3.60555647 [kcal/mol]      15.08564827 [kJ/mol]
      Exch-Ind22                    1.92407661 [mEh]       1.20737630 [kcal/mol]       5.05166245 [kJ/mol]
      delta HF,r (2)               -1.12165521 [mEh]      -0.70384927 [kcal/mol]      -2.94490535 [kJ/mol]

    Dispersion                     -3.33829834 [mEh]      -2.09481383 [kcal/mol]      -8.76470108 [kJ/mol]
      Disp20                       -2.72937224 [mEh]      -1.71270694 [kcal/mol]      -7.16596583 [kJ/mol]
      Disp21                       -0.05238034 [mEh]      -0.03286916 [kcal/mol]      -0.13752456 [kJ/mol]
      Disp22 (SDQ)                 -0.63195097 [mEh]      -0.39655522 [kcal/mol]      -1.65918704 [kJ/mol]
      Disp22 (T)                   -0.54815806 [mEh]      -0.34397437 [kcal/mol]      -1.43918878 [kJ/mol]
      Est. Disp22 (T)              -0.68515567 [mEh]      -0.42994167 [kcal/mol]      -1.79887595 [kJ/mol]
      Exch-Disp20                   0.76056088 [mEh]       0.47725916 [kcal/mol]       1.99685231 [kJ/mol]

  Total HF                        -33.37746600 [mEh]     -20.94467613 [kcal/mol]     -87.63252491 [kJ/mol]
  Total SAPT0                     -35.34627736 [mEh]     -22.18012391 [kcal/mol]     -92.80163843 [kJ/mol]
  Total SAPT2                     -34.56352883 [mEh]     -21.68894179 [kcal/mol]     -90.74653244 [kJ/mol]
  Total SAPT2+                    -35.93301580 [mEh]     -22.54830784 [kcal/mol]     -94.34211999 [kJ/mol]

  Special recipe for scaled SAPT0 (see Manual):
    Electrostatics sSAPT0         -32.86332039 [mEh]     -20.62204488 [kcal/mol]     -86.28263579 [kJ/mol]
    Exchange sSAPT0                 8.30424748 [mEh]       5.21099397 [kcal/mol]      21.80279875 [kJ/mol]
    Induction sSAPT0               -8.76959953 [mEh]      -5.50300679 [kcal/mol]     -23.02458040 [kJ/mol]
    Dispersion sSAPT0              -1.96235267 [mEh]      -1.23139489 [kcal/mol]      -5.15215624 [kJ/mol]
  Total sSAPT0                    -35.29102511 [mEh]     -22.14545260 [kcal/mol]     -92.65657367 [kJ/mol]
  --------------------------------------------------------------------------------------------------------

*** Psi4 exiting successfully. Buy a developer a beer!
