                               Psi4 1.9 release

  ==> Input File <==

--------------------------------------------------------------------------
MEMORY 60 GB

molecule dimer {
0 1
Li     0.000000     0.000000     0.000000
F      0.000000     1.584155     0.000000
--
-1 1
F      3.168310     0.000000     0.000000

units ang
no_reorient
no_com
symmetry c1
}

set {
basis        aug-cc-pVTZ
scf_type     df
}

energy("sapt2+")
--------------------------------------------------------------------------

  //              Dimer HF             //
    Molecular point group: c1
  Charge       = -1
  Multiplicity = 1
  Basis Set: AUG-CC-PVTZ
    Blend: AUG-CC-PVTZ
  Basis Set: (AUG-CC-PVTZ AUX)
    Blend: AUG-CC-PVTZ-JKFIT + DEF2-UNIVERSAL-JKFIT
  @DF-RHF Final Energy:  -206.44984001725575
    Total Energy =                       -206.4498400172557524
 Dipole X            :        -59.6444819           53.8851436           -5.7593383
 Dipole Y            :        -29.5008865           26.9425718           -2.5583147
 Dipole Z            :          0.0000000            0.0000000            0.0000000
 Magnitude           :                                                    6.3019800
  //            Monomer A HF           //
    Molecular point group: c1
  Multiplicity = 1
  Basis Set: AUG-CC-PVTZ
    Blend: AUG-CC-PVTZ
  Basis Set: (AUG-CC-PVTZ AUX)
    Blend: AUG-CC-PVTZ-JKFIT + DEF2-UNIVERSAL-JKFIT
  @DF-RHF Final Energy:  -106.98267758229596
    Total Energy =                       -106.9826775822959632
  //            Monomer B HF           //
    Molecular point group: c1

    Geometry (in Angstrom), charge = -1, multiplicity = 1:

       Center              X                  Y                   Z               Mass
    ------------   -----------------  -----------------  -----------------  -----------------
      Gh(LI)          0.000000000000     0.000000000000     0.000000000000     7.016003436600
      Gh(F)           0.000000000000     1.584155000000     0.000000000000    18.998403162730
         F            3.168310000000     0.000000000000     0.000000000000    18.998403162730

  Charge       = -1
  Multiplicity = 1
  Basis Set: AUG-CC-PVTZ
    Blend: AUG-CC-PVTZ
  Basis Set: (AUG-CC-PVTZ AUX)
    Blend: AUG-CC-PVTZ-JKFIT + DEF2-UNIVERSAL-JKFIT

    Orbital Energies [Eh]
    ---------------------

    Doubly Occupied:

       1A    -25.833839     2A     -1.076082     3A     -0.181014
       4A     -0.181010     5A     -0.181010

  @DF-RHF Final Energy:   -99.45082782498044

   => Energetics <=

    Nuclear Repulsion Energy =              0.0000000000000000
    One-Electron Energy =                -143.9957437831758114
    Two-Electron Energy =                  44.5449159581953751
    Total Energy =                        -99.4508278249804363
 Dipole X            :        -59.8718569           53.8851436           -5.9867133
 Dipole Y            :         -0.0001111            0.0000000           -0.0001111
 Dipole Z            :          0.0000000            0.0000000            0.0000000
 Magnitude           :                                                    5.9867133

    SAPT Results
  --------------------------------------------------------------------------------------------------------
    Electrostatics                -13.81869895 [mEh]      -8.67136451 [kcal/mol]     -36.28098910 [kJ/mol]
      Elst10,r                    -14.10669088 [mEh]      -8.85208217 [kcal/mol]     -37.03711181 [kJ/mol]
      Elst12,r                      0.28799193 [mEh]       0.18071767 [kcal/mol]       0.75612271 [kJ/mol]

    Exchange                        1.45368013 [mEh]       0.91219805 [kcal/mol]       3.81663665 [kJ/mol]
      Exch10                        0.82845005 [mEh]       0.51986026 [kcal/mol]       2.17509531 [kJ/mol]
      Exch10(S^2)                   0.82815197 [mEh]       0.51967320 [kcal/mol]       2.17431269 [kJ/mol]
      Exch11(S^2)                  -0.03065718 [mEh]      -0.01923767 [kcal/mol]      -0.08049041 [kJ/mol]
      Exch12(S^2)                   0.65588726 [mEh]       0.41157547 [kcal/mol]       1.72203175 [kJ/mol]

    Induction                      -4.05133767 [mEh]      -2.54225277 [kcal/mol]     -10.63678559 [kJ/mol]
      Ind20,r                      -3.60624482 [mEh]      -2.26295279 [kcal/mol]      -9.46819447 [kJ/mol]
      Ind22                        -1.19174332 [mEh]      -0.74783022 [kcal/mol]      -3.12892165 [kJ/mol]
      Exch-Ind20,r                  0.59544541 [mEh]       0.37364763 [kcal/mol]       1.56334170 [kJ/mol]
      Exch-Ind22                    0.19677479 [mEh]       0.12347805 [kcal/mol]       0.51663215 [kJ/mol]
      delta HF,r (2)               -0.04556974 [mEh]      -0.02859544 [kcal/mol]      -0.11964333 [kJ/mol]

    Dispersion                     -0.94311428 [mEh]      -0.59181315 [kcal/mol]      -2.47614621 [kJ/mol]
      Disp20                       -0.65040640 [mEh]      -0.40813618 [kcal/mol]      -1.70764176 [kJ/mol]
      Disp21                       -0.04023901 [mEh]      -0.02525036 [kcal/mol]      -0.10564752 [kJ/mol]
      Disp22 (SDQ)                 -0.17780598 [mEh]      -0.11157494 [kcal/mol]      -0.46682954 [kJ/mol]
      Disp22 (T)                   -0.15076110 [mEh]      -0.09460402 [kcal/mol]      -0.39582322 [kJ/mol]
      Est. Disp22 (T)              -0.18286993 [mEh]      -0.11475261 [kcal/mol]      -0.48012493 [kJ/mol]
      Exch-Disp20                   0.10820704 [mEh]       0.06790094 [kcal/mol]       0.28409754 [kJ/mol]

  Total HF                        -16.33460998 [mEh]     -10.25012251 [kcal/mol]     -42.88651259 [kJ/mol]
  Total SAPT0                     -16.87680934 [mEh]     -10.59035775 [kcal/mol]     -44.31005681 [kJ/mol]
  Total SAPT2                     -16.95855585 [mEh]     -10.64165446 [kcal/mol]     -44.52468226 [kJ/mol]
  Total SAPT2+                    -17.35947078 [mEh]     -10.89323237 [kcal/mol]     -45.57728425 [kJ/mol]

  Special recipe for scaled SAPT0 (see Manual):
    Electrostatics sSAPT0         -14.10669088 [mEh]      -8.85208217 [kcal/mol]     -37.03711181 [kJ/mol]
    Exchange sSAPT0                 0.82845005 [mEh]       0.51986026 [kcal/mol]       2.17509531 [kJ/mol]
    Induction sSAPT0               -3.05572594 [mEh]      -1.91749698 [kcal/mol]      -8.02280735 [kJ/mol]
    Dispersion sSAPT0              -0.54208247 [mEh]      -0.34016189 [kcal/mol]      -1.42323733 [kJ/mol]
  Total sSAPT0                    -16.87604924 [mEh]     -10.58988078 [kcal/mol]     -44.30806118 [kJ/mol]
  --------------------------------------------------------------------------------------------------------

*** Psi4 exiting successfully. Buy a developer a beer!
