                               Psi4 1.9 release

  ==> Input File <==

--------------------------------------------------------------------------
MEMORY 60 GB

molecule dimer {
0 1
Li     0.000000     0.000000     0.000000
F      0.000000     1.584155     0.000000
--
-1 1
F      2.059401     0.000000     0.000000

units ang
no_reorient
no_com
symmetry c1
}

set {
basis        aug-cc-pVTZ
scf_type     df
}

energy("sapt2+")
--------------------------------------------------------------------------

  //              Dimer HF             //
    Molecular point group: c1
  Charge       = -1
  Multiplicity = 1
  Basis Set: AUG-CC-PVTZ
    Blend: AUG-CC-PVTZ
  Basis Set: (AUG-CC-PVTZ AUX)
    Blend: AUG-CC-PVTZ-JKFIT + DEF2-UNIVERSAL-JKFIT
  @DF-RHF Final Energy:  -206.47631986527318
    Total Energy =                       -206.4763198652731830
 Dipole X            :        -38.5199303           35.0253349           -3.4945954
 Dipole Y            :        -29.4920493           26.9425718           -2.5494775
 Dipole Z            :         -0.0000000            0.0000000           -0.0000000
 Magnitude           :                                                    4.3257407
  //            Monomer A HF           //
    Molecular point group: c1
  Multiplicity = 1
  Basis Set: AUG-CC-PVTZ
    Blend: AUG-CC-PVTZ
  Basis Set: (AUG-CC-PVTZ AUX)
    Blend: AUG-CC-PVTZ-JKFIT + DEF2-UNIVERSAL-JKFIT
  @DF-RHF Final Energy:  -106.98281400765998
    Total Energy =                       -106.9828140076599823
  //            Monomer B HF           //
    Molecular point group: c1

    Geometry (in Angstrom), charge = -1, multiplicity = 1:

       Center              X                  Y                   Z               Mass
    ------------   -----------------  -----------------  -----------------  -----------------
      Gh(LI)          0.000000000000     0.000000000000     0.000000000000     7.016003436600
      Gh(F)           0.000000000000     1.584155000000     0.000000000000    18.998403162730
         F            2.059401000000     0.000000000000     0.000000000000    18.998403162730

  Charge       = -1
  Multiplicity = 1
  Basis Set: AUG-CC-PVTZ
    Blend: AUG-CC-PVTZ
  Basis Set: (AUG-CC-PVTZ AUX)
    Blend: AUG-CC-PVTZ-JKFIT + DEF2-UNIVERSAL-JKFIT

    Orbital Energies [Eh]
    ---------------------

    Doubly Occupied:

       1A    -25.833800     2A     -1.076055     3A     -0.181036
       4A     -0.180983     5A     -0.180980

  @DF-RHF Final Energy:   -99.45088335260787

   => Energetics <=

    Nuclear Repulsion Energy =              0.0000000000000000
    One-Electron Energy =                -143.9960594424160263
    Two-Electron Energy =                  44.5451760898081659
    Total Energy =                        -99.4508833526078604
 Dipole X            :        -38.9170520           35.0253349           -3.8917171
 Dipole Y            :          0.0001061            0.0000000            0.0001061
 Dipole Z            :         -0.0000000            0.0000000           -0.0000000
 Magnitude           :                                                    3.8917171

    SAPT Results
  --------------------------------------------------------------------------------------------------------
    Electrostatics                -51.49972098 [mEh]     -32.31656281 [kcal/mol]    -135.21249880 [kJ/mol]
      Elst10,r                    -49.89094606 [mEh]     -31.30704131 [kcal/mol]    -130.98866085 [kJ/mol]
      Elst12,r                     -1.60877491 [mEh]      -1.00952150 [kcal/mol]      -4.22383795 [kJ/mol]

    Exchange                       29.25099634 [mEh]      18.35527732 [kcal/mol]      76.79848032 [kJ/mol]
      Exch10                       21.32694079 [mEh]      13.38285739 [kcal/mol]      55.99387533 [kJ/mol]
      Exch10(S^2)                  21.19373961 [mEh]      13.29927239 [kcal/mol]      55.64415567 [kJ/mol]
      Exch11(S^2)                  -0.49763898 [mEh]      -0.31227318 [kcal/mol]      -1.30655097 [kJ/mol]
      Exch12(S^2)                   8.42169454 [mEh]       5.28469311 [kcal/mol]      22.11115596 [kJ/mol]

    Induction                     -17.47701563 [mEh]     -10.96699288 [kcal/mol]     -45.88589823 [kJ/mol]
      Ind20,r                     -25.31774719 [mEh]     -15.88712622 [kcal/mol]     -66.47173610 [kJ/mol]
      Ind22                        -7.96903037 [mEh]      -5.00064205 [kcal/mol]     -20.92268635 [kJ/mol]
      Exch-Ind20,r                 14.45706308 [mEh]       9.07194405 [kcal/mol]      37.95701389 [kJ/mol]
      Exch-Ind22                    4.55051446 [mEh]       2.85549093 [kcal/mol]      11.94737407 [kJ/mol]
      delta HF,r (2)               -3.19781562 [mEh]      -2.00665960 [kcal/mol]      -8.39586375 [kJ/mol]

    Dispersion                     -5.55586477 [mEh]      -3.48635778 [kcal/mol]     -14.58692094 [kJ/mol]
      Disp20                       -4.95777033 [mEh]      -3.11104785 [kcal/mol]     -13.01662421 [kJ/mol]
      Disp21                        0.02271859 [mEh]       0.01425613 [kcal/mol]       0.05964766 [kJ/mol]
      Disp22 (SDQ)                 -1.03717313 [mEh]      -0.65083597 [kcal/mol]      -2.72309768 [kJ/mol]
      Disp22 (T)                   -0.96164932 [mEh]      -0.60344406 [kcal/mol]      -2.52480993 [kJ/mol]
      Est. Disp22 (T)              -1.17108562 [mEh]      -0.73486732 [kcal/mol]      -3.07468487 [kJ/mol]
      Exch-Disp20                   1.58744572 [mEh]       0.99613723 [kcal/mol]       4.16783817 [kJ/mol]

  Total HF                        -42.62250501 [mEh]     -26.74602569 [kcal/mol]    -111.90537147 [kJ/mol]
  Total SAPT0                     -45.99282961 [mEh]     -28.86093631 [kcal/mol]    -120.75415751 [kJ/mol]
  Total SAPT2                     -43.09606488 [mEh]     -27.04318899 [kcal/mol]    -113.14870275 [kJ/mol]
  Total SAPT2+                    -45.28160504 [mEh]     -28.41463615 [kcal/mol]    -118.88683765 [kJ/mol]

  Special recipe for scaled SAPT0 (see Manual):
    Electrostatics sSAPT0         -49.89094606 [mEh]     -31.30704131 [kcal/mol]    -130.98866085 [kJ/mol]
    Exchange sSAPT0                21.32694079 [mEh]      13.38285739 [kcal/mol]      55.99387533 [kJ/mol]
    Induction sSAPT0              -13.78419805 [mEh]      -8.64971487 [kcal/mol]     -36.19040700 [kJ/mol]
    Dispersion sSAPT0              -3.34020514 [mEh]      -2.09601037 [kcal/mol]      -8.76970739 [kJ/mol]
  Total sSAPT0                    -45.68840847 [mEh]     -28.66990916 [kcal/mol]    -119.95489991 [kJ/mol]
  --------------------------------------------------------------------------------------------------------

*** Psi4 exiting successfully. Buy a developer a beer!
