                               Psi4 1.9 release

  ==> Input File <==

--------------------------------------------------------------------------
MEMORY 60 GB

molecule dimer {
0 1
Li     0.000000     0.000000     0.000000
F      0.000000     1.584155     0.000000
--
-1 1
F      2.217817     0.000000     0.000000

units ang
no_reorient
no_com
symmetry c1
}

set {
basis        aug-cc-pVTZ
scf_type     df
}

energy("sapt2+")
--------------------------------------------------------------------------

  //              Dimer HF             //
    Molecular point group: c1
  Charge       = -1
  Multiplicity = 1
  Basis Set: AUG-CC-PVTZ
    Blend: AUG-CC-PVTZ
  Basis Set: (AUG-CC-PVTZ AUX)
    Blend: AUG-CC-PVTZ-JKFIT + DEF2-UNIVERSAL-JKFIT
  @DF-RHF Final Energy:  -206.47169659698105
    Total Energy =                       -206.4716965969810474
 Dipole X            :        -41.5345487           37.7196005           -3.8149482
 Dipole Y            :        -29.4902338           26.9425718           -2.5476620
 Dipole Z            :         -0.0000000            0.0000000           -0.0000000
 Magnitude           :                                                    4.5874188
  //            Monomer A HF           //
    Molecular point group: c1
  Multiplicity = 1
  Basis Set: AUG-CC-PVTZ
    Blend: AUG-CC-PVTZ
  Basis Set: (AUG-CC-PVTZ AUX)
    Blend: AUG-CC-PVTZ-JKFIT + DEF2-UNIVERSAL-JKFIT
  @DF-RHF Final Energy:  -106.98276678891747
    Total Energy =                       -106.9827667889174734
  //            Monomer B HF           //
    Molecular point group: c1

    Geometry (in Angstrom), charge = -1, multiplicity = 1:

       Center              X                  Y                   Z               Mass
    ------------   -----------------  -----------------  -----------------  -----------------
      Gh(LI)          0.000000000000     0.000000000000     0.000000000000     7.016003436600
      Gh(F)           0.000000000000     1.584155000000     0.000000000000    18.998403162730
         F            2.217817000000     0.000000000000     0.000000000000    18.998403162730

  Charge       = -1
  Multiplicity = 1
  Basis Set: AUG-CC-PVTZ
    Blend: AUG-CC-PVTZ
  Basis Set: (AUG-CC-PVTZ AUX)
    Blend: AUG-CC-PVTZ-JKFIT + DEF2-UNIVERSAL-JKFIT

    Orbital Energies [Eh]
    ---------------------

    Doubly Occupied:

       1A    -25.833813     2A     -1.076062     3A     -0.181035
       4A     -0.180987     5A     -0.180986

  @DF-RHF Final Energy:   -99.45086878186440

   => Energetics <=

    Nuclear Repulsion Energy =              0.0000000000000000
    One-Electron Energy =                -143.9959711920096197
    Two-Electron Energy =                  44.5451024101452191
    Total Energy =                        -99.4508687818644006
 Dipole X            :        -41.9102579           37.7196005           -4.1906574
 Dipole Y            :          0.0000735            0.0000000            0.0000735
 Dipole Z            :         -0.0000000            0.0000000           -0.0000000
 Magnitude           :                                                    4.1906574

    SAPT Results
  --------------------------------------------------------------------------------------------------------
    Electrostatics                -41.33102979 [mEh]     -25.93561276 [kcal/mol]    -108.51460378 [kJ/mol]
      Elst10,r                    -40.25105594 [mEh]     -25.25791893 [kcal/mol]    -105.67913281 [kJ/mol]
      Elst12,r                     -1.07997386 [mEh]      -0.67769383 [kcal/mol]      -2.83547097 [kJ/mol]

    Exchange                       18.95120124 [mEh]      11.89205832 [kcal/mol]      49.75637201 [kJ/mol]
      Exch10                       13.27927444 [mEh]       8.33287052 [kcal/mol]      34.86473025 [kJ/mol]
      Exch10(S^2)                  13.22353722 [mEh]       8.29789488 [kcal/mol]      34.71839219 [kJ/mol]
      Exch11(S^2)                  -0.32760601 [mEh]      -0.20557587 [kcal/mol]      -0.86012945 [kJ/mol]
      Exch12(S^2)                   5.99953280 [mEh]       3.76476367 [kcal/mol]      15.75177121 [kJ/mol]

    Induction                     -14.09247021 [mEh]      -8.84315857 [kcal/mol]     -36.99977544 [kJ/mol]
      Ind20,r                     -18.29388657 [mEh]     -11.47958713 [kcal/mol]     -48.03059256 [kJ/mol]
      Ind22                        -5.98094165 [mEh]      -3.75309755 [kcal/mol]     -15.70296015 [kJ/mol]
      Exch-Ind20,r                  9.10793059 [mEh]       5.71531273 [kcal/mol]      23.91286847 [kJ/mol]
      Exch-Ind22                    2.97771615 [mEh]       1.86854509 [kcal/mol]       7.81799267 [kJ/mol]
      delta HF,r (2)               -1.90328873 [mEh]      -1.19433171 [kcal/mol]      -4.99708387 [kJ/mol]

    Dispersion                     -4.30745474 [mEh]      -2.70296866 [kcal/mol]     -11.30922085 [kJ/mol]
      Disp20                       -3.67456982 [mEh]      -2.30582738 [kcal/mol]      -9.64758174 [kJ/mol]
      Disp21                       -0.02803799 [mEh]      -0.01759411 [kcal/mol]      -0.07361375 [kJ/mol]
      Disp22 (SDQ)                 -0.81105183 [mEh]      -0.50894271 [kcal/mol]      -2.12941628 [kJ/mol]
      Disp22 (T)                   -0.73025649 [mEh]      -0.45824287 [kcal/mol]      -1.91728816 [kJ/mol]
      Est. Disp22 (T)              -0.89754161 [mEh]      -0.56321586 [kcal/mol]      -2.35649518 [kJ/mol]
      Exch-Disp20                   1.10374652 [mEh]       0.69261140 [kcal/mol]       2.89788609 [kJ/mol]

  Total HF                        -38.06102620 [mEh]     -23.88365452 [kcal/mol]     -99.92921052 [kJ/mol]
  Total SAPT0                     -40.63184950 [mEh]     -25.49687050 [kcal/mol]    -106.67890617 [kJ/mol]
  Total SAPT2                     -39.04312207 [mEh]     -24.49992898 [kcal/mol]    -102.50770286 [kJ/mol]
  Total SAPT2+                    -40.77975350 [mEh]     -25.58968166 [kcal/mol]    -107.06722806 [kJ/mol]

  Special recipe for scaled SAPT0 (see Manual):
    Electrostatics sSAPT0         -40.25105594 [mEh]     -25.25791893 [kcal/mol]    -105.67913281 [kJ/mol]
    Exchange sSAPT0                13.27927444 [mEh]       8.33287052 [kcal/mol]      34.86473025 [kJ/mol]
    Induction sSAPT0              -10.97358877 [mEh]      -6.88603092 [kcal/mol]     -28.81115336 [kJ/mol]
    Dispersion sSAPT0              -2.55680751 [mEh]      -1.60442094 [kcal/mol]      -6.71289720 [kJ/mol]
  Total sSAPT0                    -40.50217778 [mEh]     -25.41550027 [kcal/mol]    -106.33845312 [kJ/mol]
  --------------------------------------------------------------------------------------------------------

*** Psi4 exiting successfully. Buy a developer a beer!
