                               Psi4 1.9 release

  ==> Input File <==

--------------------------------------------------------------------------
MEMORY 60 GB

molecule dimer {
0 1
Li     0.000000     0.000000     0.000000
F      0.000000     1.584155     0.000000
--
-1 1
F      1.900986     0.000000     0.000000

units ang
no_reorient
no_com
symmetry c1
}

set {
basis        aug-cc-pVTZ
scf_type     df
}

energy("sapt2+")
--------------------------------------------------------------------------

  //              Dimer HF             //
    Molecular point group: c1
  Charge       = -1
  Multiplicity = 1
  Basis Set: AUG-CC-PVTZ
    Blend: AUG-CC-PVTZ
  Basis Set: (AUG-CC-PVTZ AUX)
    Blend: AUG-CC-PVTZ-JKFIT + DEF2-UNIVERSAL-JKFIT
  @DF-RHF Final Energy:  -206.47986428547182
    Total Energy =                       -206.4798642854718196
 Dipole X            :        -35.5104198           32.3310862           -3.1793336
 Dipole Y            :        -29.4961119           26.9425718           -2.5535400
 Dipole Z            :          0.0000000            0.0000000            0.0000000
 Magnitude           :                                                    4.0778339
  //            Monomer A HF           //
    Molecular point group: c1
  Multiplicity = 1
  Basis Set: AUG-CC-PVTZ
    Blend: AUG-CC-PVTZ
  Basis Set: (AUG-CC-PVTZ AUX)
    Blend: AUG-CC-PVTZ-JKFIT + DEF2-UNIVERSAL-JKFIT
  @DF-RHF Final Energy:  -106.98287264079210
    Total Energy =                       -106.9828726407920954
  //            Monomer B HF           //
    Molecular point group: c1

    Geometry (in Angstrom), charge = -1, multiplicity = 1:

       Center              X                  Y                   Z               Mass
    ------------   -----------------  -----------------  -----------------  -----------------
      Gh(LI)          0.000000000000     0.000000000000     0.000000000000     7.016003436600
      Gh(F)           0.000000000000     1.584155000000     0.000000000000    18.998403162730
         F            1.900986000000     0.000000000000     0.000000000000    18.998403162730

  Charge       = -1
  Multiplicity = 1
  Basis Set: AUG-CC-PVTZ
    Blend: AUG-CC-PVTZ
  Basis Set: (AUG-CC-PVTZ AUX)
    Blend: AUG-CC-PVTZ-JKFIT + DEF2-UNIVERSAL-JKFIT

    Orbital Energies [Eh]
    ---------------------

    Doubly Occupied:

       1A    -25.833783     2A     -1.076046     3A     -0.181032
       4A     -0.180979     5A     -0.180973

  @DF-RHF Final Energy:   -99.45089940733321

   => Energetics <=

    Nuclear Repulsion Energy =              0.0000000000000000
    One-Electron Energy =                -143.9961741582444006
    Two-Electron Energy =                  44.5452747509111902
    Total Energy =                        -99.4508994073332104
 Dipole X            :        -35.9238164           32.3310862           -3.5927303
 Dipole Y            :          0.0001173            0.0000000            0.0001173
 Dipole Z            :         -0.0000000            0.0000000           -0.0000000
 Magnitude           :                                                    3.5927303

    SAPT Results
  --------------------------------------------------------------------------------------------------------
    Electrostatics                -64.73127077 [mEh]     -40.61948566 [kcal/mol]    -169.95192800 [kJ/mol]
      Elst10,r                    -62.54291779 [mEh]     -39.24627343 [kcal/mol]    -164.20640804 [kJ/mol]
      Elst12,r                     -2.18835298 [mEh]      -1.37321223 [kcal/mol]      -5.74551996 [kJ/mol]

    Exchange                       45.34506771 [mEh]      28.45445958 [kcal/mol]     119.05345886 [kJ/mol]
      Exch10                       34.48097912 [mEh]      21.63714106 [kcal/mol]      90.52979820 [kJ/mol]
      Exch10(S^2)                  34.16007662 [mEh]      21.43577170 [kcal/mol]      89.68726880 [kJ/mol]
      Exch11(S^2)                  -0.76730288 [mEh]      -0.48148982 [kcal/mol]      -2.01455343 [kJ/mol]
      Exch12(S^2)                  11.63139147 [mEh]       7.29880834 [kcal/mol]      30.53821410 [kJ/mol]

    Induction                     -21.81724901 [mEh]     -13.69053045 [kcal/mol]     -57.28117939 [kJ/mol]
      Ind20,r                     -35.63892911 [mEh]     -22.36376565 [kcal/mol]     -93.56999548 [kJ/mol]
      Ind22                       -10.62278046 [mEh]      -6.66589538 [kcal/mol]     -27.89010626 [kJ/mol]
      Exch-Ind20,r                 22.93388873 [mEh]      14.39123245 [kcal/mol]      60.21291656 [kJ/mol]
      Exch-Ind22                    6.83583012 [mEh]       4.28954816 [kcal/mol]      17.94746951 [kJ/mol]
      delta HF,r (2)               -5.32525829 [mEh]      -3.34165003 [kcal/mol]     -13.98146372 [kJ/mol]

    Dispersion                     -7.16244733 [mEh]      -4.49450355 [kcal/mol]     -18.80500287 [kJ/mol]
      Disp20                       -6.69836556 [mEh]      -4.20328785 [kcal/mol]     -17.58655635 [kJ/mol]
      Disp21                        0.11565408 [mEh]       0.07257403 [kcal/mol]       0.30364975 [kJ/mol]
      Disp22 (SDQ)                 -1.31972283 [mEh]      -0.82813858 [kcal/mol]      -3.46493183 [kJ/mol]
      Disp22 (T)                   -1.25965617 [mEh]      -0.79044618 [kcal/mol]      -3.30722681 [kJ/mol]
      Est. Disp22 (T)              -1.51747523 [mEh]      -0.95223008 [kcal/mol]      -3.98413066 [kJ/mol]
      Exch-Disp20                   2.25746221 [mEh]       1.41657892 [kcal/mol]       5.92696621 [kJ/mol]

  Total HF                        -46.09223735 [mEh]     -28.92331560 [kcal/mol]    -121.01515248 [kJ/mol]
  Total SAPT0                     -50.53314070 [mEh]     -31.71002453 [kcal/mol]    -132.67474262 [kJ/mol]
  Total SAPT2                     -45.64435542 [mEh]     -28.64226545 [kcal/mol]    -119.83923866 [kJ/mol]
  Total SAPT2+                    -48.36589940 [mEh]     -30.35006008 [kcal/mol]    -126.98465139 [kJ/mol]

  Special recipe for scaled SAPT0 (see Manual):
    Electrostatics sSAPT0         -62.54291779 [mEh]     -39.24627343 [kcal/mol]    -164.20640804 [kJ/mol]
    Exchange sSAPT0                34.48097912 [mEh]      21.63714106 [kcal/mol]      90.52979820 [kJ/mol]
    Induction sSAPT0              -17.37787963 [mEh]     -10.90478410 [kcal/mol]     -45.62561668 [kJ/mol]
    Dispersion sSAPT0              -4.37668348 [mEh]      -2.74641035 [kcal/mol]     -11.49098089 [kJ/mol]
  Total sSAPT0                    -49.81650178 [mEh]     -31.26032682 [kcal/mol]    -130.79320742 [kJ/mol]
  --------------------------------------------------------------------------------------------------------

*** Psi4 exiting successfully. Buy a developer a beer!
