                               Psi4 1.9 release

  ==> Input File <==

--------------------------------------------------------------------------
MEMORY 60 GB

molecule dimer {
0 1
Cl     0.000000     0.000000     0.000000
Li     0.000000     2.029797     0.000000
--
1 1
Li     2.841716     0.000000     0.000000

units ang
no_reorient
no_com
symmetry c1
}

set {
basis        aug-cc-pVTZ
scf_type     df
}

energy("sapt2+")
--------------------------------------------------------------------------

  //              Dimer HF             //
    Molecular point group: c1
  Charge       = 1
  Multiplicity = 1
  Basis Set: AUG-CC-PVTZ
    Blend: AUG-CC-PVTZ
  Basis Set: (AUG-CC-PVTZ AUX)
    Blend: AUG-CC-PVTZ-JKFIT + DEF2-UNIVERSAL-JKFIT
  @DF-RHF Final Energy:  -474.33273077843558
    Total Energy =                       -474.3327307784355753
 Dipole X            :        -11.5267760           16.1101949            4.5834189
 Dipole Y            :         -8.5851235           11.5072813            2.9221577
 Dipole Z            :          0.0000000            0.0000000            0.0000000
 Magnitude           :                                                    5.4356908
  //            Monomer A HF           //
    Molecular point group: c1
  Multiplicity = 1
  Basis Set: AUG-CC-PVTZ
    Blend: AUG-CC-PVTZ
  Basis Set: (AUG-CC-PVTZ AUX)
    Blend: AUG-CC-PVTZ-JKFIT + DEF2-UNIVERSAL-JKFIT
  @DF-RHF Final Energy:  -467.05209549082718
    Total Energy =                       -467.0520954908271278
  //            Monomer B HF           //
    Molecular point group: c1

    Geometry (in Angstrom), charge = 1, multiplicity = 1:

       Center              X                  Y                   Z               Mass
    ------------   -----------------  -----------------  -----------------  -----------------
      Gh(CL)          0.000000000000     0.000000000000     0.000000000000    34.968852682000
      Gh(LI)          0.000000000000     2.029797000000     0.000000000000     7.016003436600
         LI           2.841716000000     0.000000000000     0.000000000000     7.016003436600

  Charge       = 1
  Multiplicity = 1
  Basis Set: AUG-CC-PVTZ
    Blend: AUG-CC-PVTZ
  Basis Set: (AUG-CC-PVTZ AUX)
    Blend: AUG-CC-PVTZ-JKFIT + DEF2-UNIVERSAL-JKFIT

    Orbital Energies [Eh]
    ---------------------

    Doubly Occupied:

       1A     -2.792372

  @DF-RHF Final Energy:    -7.23638319628204

   => Energetics <=

    Nuclear Repulsion Energy =              0.0000000000000000
    One-Electron Energy =                  -8.8880223851512419
    Two-Electron Energy =                   1.6516391888692048
    Total Energy =                         -7.2363831962820369
 Dipole X            :        -10.7402085           16.1101949            5.3699864
 Dipole Y            :          0.0000164            0.0000000            0.0000164
 Dipole Z            :          0.0000000            0.0000000            0.0000000
 Magnitude           :                                                    5.3699864

    SAPT Results
  --------------------------------------------------------------------------------------------------------
    Electrostatics                -31.06376222 [mEh]     -19.49280508 [kcal/mol]     -81.55789647 [kJ/mol]
      Elst10,r                    -31.44893671 [mEh]     -19.73450573 [kcal/mol]     -82.56917195 [kJ/mol]
      Elst12,r                      0.38517449 [mEh]       0.24170064 [kcal/mol]       1.01127549 [kJ/mol]

    Exchange                        3.03591887 [mEh]       1.90506785 [kcal/mol]       7.97080390 [kJ/mol]
      Exch10                        2.84686505 [mEh]       1.78643479 [kcal/mol]       7.47444317 [kJ/mol]
      Exch10(S^2)                   2.84477065 [mEh]       1.78512053 [kcal/mol]       7.46894431 [kJ/mol]
      Exch11(S^2)                  -0.01782170 [mEh]      -0.01118328 [kcal/mol]      -0.04679086 [kJ/mol]
      Exch12(S^2)                   0.20687552 [mEh]       0.12981635 [kcal/mol]       0.54315160 [kJ/mol]

    Induction                     -16.60664918 [mEh]     -10.42082969 [kcal/mol]     -43.60075141 [kJ/mol]
      Ind20,r                     -18.22755475 [mEh]     -11.43796329 [kcal/mol]     -47.85643839 [kJ/mol]
      Ind22                        -1.20955427 [mEh]      -0.75900676 [kcal/mol]      -3.17568429 [kJ/mol]
      Exch-Ind20,r                  3.81148663 [mEh]       2.39174397 [kcal/mol]      10.00705676 [kJ/mol]
      Exch-Ind22                    0.25292476 [mEh]       0.15871268 [kcal/mol]       0.66405387 [kJ/mol]
      delta HF,r (2)               -1.23395155 [mEh]      -0.77431629 [kcal/mol]      -3.23973934 [kJ/mol]

    Dispersion                     -0.17152153 [mEh]      -0.10763138 [kcal/mol]      -0.45032971 [kJ/mol]
      Disp20                       -0.17629513 [mEh]      -0.11062686 [kcal/mol]      -0.46286280 [kJ/mol]
      Disp21                       -0.00702451 [mEh]      -0.00440795 [kcal/mol]      -0.01844285 [kJ/mol]
      Disp22 (SDQ)                 -0.00099192 [mEh]      -0.00062244 [kcal/mol]      -0.00260428 [kJ/mol]
      Disp22 (T)                   -0.01053444 [mEh]      -0.00661046 [kcal/mol]      -0.02765816 [kJ/mol]
      Est. Disp22 (T)              -0.01302796 [mEh]      -0.00817517 [kcal/mol]      -0.03420491 [kJ/mol]
      Exch-Disp20                   0.02581799 [mEh]       0.01620103 [kcal/mol]       0.06778513 [kJ/mol]

  Total HF                        -44.25209133 [mEh]     -27.76860654 [kcal/mol]    -116.18384977 [kJ/mol]
  Total SAPT0                     -44.40256847 [mEh]     -27.86303237 [kcal/mol]    -116.57892745 [kJ/mol]
  Total SAPT2                     -44.78496966 [mEh]     -28.10299275 [kcal/mol]    -117.58292165 [kJ/mol]
  Total SAPT2+                    -44.80601405 [mEh]     -28.11619830 [kcal/mol]    -117.63817368 [kJ/mol]

  Special recipe for scaled SAPT0 (see Manual):
    Electrostatics sSAPT0         -31.44893671 [mEh]     -19.73450573 [kcal/mol]     -82.56917195 [kJ/mol]
    Exchange sSAPT0                 2.84686505 [mEh]       1.78643479 [kcal/mol]       7.47444317 [kJ/mol]
    Induction sSAPT0              -15.64159508 [mEh]      -9.81524910 [kcal/mol]     -41.06700222 [kJ/mol]
    Dispersion sSAPT0              -0.15042007 [mEh]      -0.09439002 [kcal/mol]      -0.39492785 [kJ/mol]
  Total sSAPT0                    -44.39408681 [mEh]     -27.85771005 [kcal/mol]    -116.55665886 [kJ/mol]
  --------------------------------------------------------------------------------------------------------

*** Psi4 exiting successfully. Buy a developer a beer!
