                               Psi4 1.9 release

  ==> Input File <==

--------------------------------------------------------------------------
MEMORY 60 GB

molecule dimer {
0 1
Cl     0.000000     0.000000     0.000000
Li     0.000000     2.029797     0.000000
--
1 1
Li     2.638736     0.000000     0.000000

units ang
no_reorient
no_com
symmetry c1
}

set {
basis        aug-cc-pVTZ
scf_type     df
}

energy("sapt2+")
--------------------------------------------------------------------------

  //              Dimer HF             //
    Molecular point group: c1
  Charge       = 1
  Multiplicity = 1
  Basis Set: AUG-CC-PVTZ
    Blend: AUG-CC-PVTZ
  Basis Set: (AUG-CC-PVTZ AUX)
    Blend: AUG-CC-PVTZ-JKFIT + DEF2-UNIVERSAL-JKFIT
  @DF-RHF Final Energy:  -474.33938724747071
    Total Energy =                       -474.3393872474707678
 Dipole X            :        -10.8027068           14.9594651            4.1567583
 Dipole Y            :         -8.5764439           11.5072813            2.9308373
 Dipole Z            :          0.0000000            0.0000000            0.0000000
 Magnitude           :                                                    5.0861033
  //            Monomer A HF           //
    Molecular point group: c1
  Multiplicity = 1
  Basis Set: AUG-CC-PVTZ
    Blend: AUG-CC-PVTZ
  Basis Set: (AUG-CC-PVTZ AUX)
    Blend: AUG-CC-PVTZ-JKFIT + DEF2-UNIVERSAL-JKFIT
  @DF-RHF Final Energy:  -467.05210493890218
    Total Energy =                       -467.0521049389021755
  //            Monomer B HF           //
    Molecular point group: c1

    Geometry (in Angstrom), charge = 1, multiplicity = 1:

       Center              X                  Y                   Z               Mass
    ------------   -----------------  -----------------  -----------------  -----------------
      Gh(CL)          0.000000000000     0.000000000000     0.000000000000    34.968852682000
      Gh(LI)          0.000000000000     2.029797000000     0.000000000000     7.016003436600
         LI           2.638736000000     0.000000000000     0.000000000000     7.016003436600

  Charge       = 1
  Multiplicity = 1
  Basis Set: AUG-CC-PVTZ
    Blend: AUG-CC-PVTZ
  Basis Set: (AUG-CC-PVTZ AUX)
    Blend: AUG-CC-PVTZ-JKFIT + DEF2-UNIVERSAL-JKFIT

    Orbital Energies [Eh]
    ---------------------

    Doubly Occupied:

       1A     -2.792372

  @DF-RHF Final Energy:    -7.23638323129828

   => Energetics <=

    Nuclear Repulsion Energy =              0.0000000000000000
    One-Electron Energy =                  -8.8880218633215051
    Two-Electron Energy =                   1.6516386320232290
    Total Energy =                         -7.2363832312982765
 Dipole X            :         -9.9730592           14.9594651            4.9864059
 Dipole Y            :          0.0000143            0.0000000            0.0000143
 Dipole Z            :         -0.0000000            0.0000000           -0.0000000
 Magnitude           :                                                    4.9864059

    SAPT Results
  --------------------------------------------------------------------------------------------------------
    Electrostatics                -36.80071268 [mEh]     -23.09279585 [kcal/mol]     -96.62025784 [kJ/mol]
      Elst10,r                    -37.31602589 [mEh]     -23.41615977 [kcal/mol]     -97.97321248 [kJ/mol]
      Elst12,r                      0.51531321 [mEh]       0.32336392 [kcal/mol]       1.35295464 [kJ/mol]

    Exchange                        5.82768436 [mEh]       3.65692715 [kcal/mol]      15.30058318 [kJ/mol]
      Exch10                        5.54061769 [mEh]       3.47679009 [kcal/mol]      14.54688974 [kJ/mol]
      Exch10(S^2)                   5.53270035 [mEh]       3.47182188 [kcal/mol]      14.52610276 [kJ/mol]
      Exch11(S^2)                  -0.04075943 [mEh]      -0.02557693 [kcal/mol]      -0.10701387 [kJ/mol]
      Exch12(S^2)                   0.32782610 [mEh]       0.20571398 [kcal/mol]       0.86070731 [kJ/mol]

    Induction                     -20.26686031 [mEh]     -12.71764685 [kcal/mol]     -53.21063440 [kJ/mol]
      Ind20,r                     -24.92490378 [mEh]     -15.64061326 [kcal/mol]     -65.44032586 [kJ/mol]
      Ind22                        -1.58151508 [mEh]      -0.99241569 [kcal/mol]      -4.15226726 [kJ/mol]
      Exch-Ind20,r                  6.90804637 [mEh]       4.33486454 [kcal/mol]      18.13707324 [kJ/mol]
      Exch-Ind22                    0.43832384 [mEh]       0.27505236 [kcal/mol]       1.15081908 [kJ/mol]
      delta HF,r (2)               -1.10681165 [mEh]      -0.69453480 [kcal/mol]      -2.90593359 [kJ/mol]

    Dispersion                     -0.27851308 [mEh]      -0.17476960 [kcal/mol]      -0.73123600 [kJ/mol]
      Disp20                       -0.29132526 [mEh]      -0.18280936 [kcal/mol]      -0.76487436 [kJ/mol]
      Disp21                       -0.01173534 [mEh]      -0.00736403 [kcal/mol]      -0.03081112 [kJ/mol]
      Disp22 (SDQ)                 -0.00067870 [mEh]      -0.00042589 [kcal/mol]      -0.00178194 [kJ/mol]
      Disp22 (T)                   -0.01676953 [mEh]      -0.01052304 [kcal/mol]      -0.04402840 [kJ/mol]
      Est. Disp22 (T)              -0.02077270 [mEh]      -0.01303506 [kcal/mol]      -0.05453871 [kJ/mol]
      Exch-Disp20                   0.04599891 [mEh]       0.02886475 [kcal/mol]       0.12077012 [kJ/mol]

  Total HF                        -50.89907727 [mEh]     -31.93965319 [kcal/mol]    -133.63550896 [kJ/mol]
  Total SAPT0                     -51.14440362 [mEh]     -32.09359780 [kcal/mol]    -134.27961320 [kJ/mol]
  Total SAPT2                     -51.48521498 [mEh]     -32.30746016 [kcal/mol]    -135.17441331 [kJ/mol]
  Total SAPT2+                    -51.51840172 [mEh]     -32.32828515 [kcal/mol]    -135.26154507 [kJ/mol]

  Special recipe for scaled SAPT0 (see Manual):
    Electrostatics sSAPT0         -37.31602589 [mEh]     -23.41615977 [kcal/mol]     -97.97321248 [kJ/mol]
    Exchange sSAPT0                 5.54061769 [mEh]       3.47679009 [kcal/mol]      14.54688974 [kJ/mol]
    Induction sSAPT0              -19.09397018 [mEh]     -11.98164718 [kcal/mol]     -50.13121181 [kJ/mol]
    Dispersion sSAPT0              -0.24512859 [mEh]      -0.15382051 [kcal/mol]      -0.64358503 [kJ/mol]
  Total sSAPT0                    -51.11450698 [mEh]     -32.07483738 [kcal/mol]    -134.20111958 [kJ/mol]
  --------------------------------------------------------------------------------------------------------

*** Psi4 exiting successfully. Buy a developer a beer!
