                               Psi4 1.9 release

  ==> Input File <==

--------------------------------------------------------------------------
MEMORY 60 GB

molecule dimer {
0 1
Cl     0.000000     0.000000     0.000000
Li     0.000000     2.029797     0.000000
--
1 1
Li     3.044695     0.000000     0.000000

units ang
no_reorient
no_com
symmetry c1
}

set {
basis        aug-cc-pVTZ
scf_type     df
}

energy("sapt2+")
--------------------------------------------------------------------------

  //              Dimer HF             //
    Molecular point group: c1
  Charge       = 1
  Multiplicity = 1
  Basis Set: AUG-CC-PVTZ
    Blend: AUG-CC-PVTZ
  Basis Set: (AUG-CC-PVTZ AUX)
    Blend: AUG-CC-PVTZ-JKFIT + DEF2-UNIVERSAL-JKFIT
  @DF-RHF Final Energy:  -474.32640422218873
    Total Energy =                       -474.3264042221887848
 Dipole X            :        -12.2419810           17.2609191            5.0189380
 Dipole Y            :         -8.5923631           11.5072813            2.9149182
 Dipole Z            :         -0.0000000            0.0000000           -0.0000000
 Magnitude           :                                                    5.8040061
  //            Monomer A HF           //
    Molecular point group: c1
  Multiplicity = 1
  Basis Set: AUG-CC-PVTZ
    Blend: AUG-CC-PVTZ
  Basis Set: (AUG-CC-PVTZ AUX)
    Blend: AUG-CC-PVTZ-JKFIT + DEF2-UNIVERSAL-JKFIT
  @DF-RHF Final Energy:  -467.05208759438534
    Total Energy =                       -467.0520875943853980
  //            Monomer B HF           //
    Molecular point group: c1

    Geometry (in Angstrom), charge = 1, multiplicity = 1:

       Center              X                  Y                   Z               Mass
    ------------   -----------------  -----------------  -----------------  -----------------
      Gh(CL)          0.000000000000     0.000000000000     0.000000000000    34.968852682000
      Gh(LI)          0.000000000000     2.029797000000     0.000000000000     7.016003436600
         LI           3.044695000000     0.000000000000     0.000000000000     7.016003436600

  Charge       = 1
  Multiplicity = 1
  Basis Set: AUG-CC-PVTZ
    Blend: AUG-CC-PVTZ
  Basis Set: (AUG-CC-PVTZ AUX)
    Blend: AUG-CC-PVTZ-JKFIT + DEF2-UNIVERSAL-JKFIT

    Orbital Energies [Eh]
    ---------------------

    Doubly Occupied:

       1A     -2.792372

  @DF-RHF Final Energy:    -7.23638314127185

   => Energetics <=

    Nuclear Repulsion Energy =              0.0000000000000000
    One-Electron Energy =                  -8.8880219764769777
    Two-Electron Energy =                   1.6516388352051234
    Total Energy =                         -7.2363831412718547
 Dipole X            :        -11.5073465           17.2609191            5.7535725
 Dipole Y            :          0.0000205            0.0000000            0.0000205
 Dipole Z            :         -0.0000000            0.0000000           -0.0000000
 Magnitude           :                                                    5.7535725

    SAPT Results
  --------------------------------------------------------------------------------------------------------
    Electrostatics                -26.36297660 [mEh]     -16.54301757 [kcal/mol]     -69.21598553 [kJ/mol]
      Elst10,r                    -26.66049355 [mEh]     -16.72971228 [kcal/mol]     -69.99711617 [kJ/mol]
      Elst12,r                      0.29751695 [mEh]       0.18669471 [kcal/mol]       0.78113065 [kJ/mol]

    Exchange                        1.58538949 [mEh]       0.99484693 [kcal/mol]       4.16243953 [kJ/mol]
      Exch10                        1.46675122 [mEh]       0.92040029 [kcal/mol]       3.85095481 [kJ/mol]
      Exch10(S^2)                   1.46619483 [mEh]       0.92005115 [kcal/mol]       3.84949399 [kJ/mol]
      Exch11(S^2)                  -0.00787582 [mEh]      -0.00494215 [kcal/mol]      -0.02067797 [kJ/mol]
      Exch12(S^2)                   0.12651409 [mEh]       0.07938879 [kcal/mol]       0.33216270 [kJ/mol]

    Induction                     -13.52483936 [mEh]      -8.48696483 [kcal/mol]     -35.50946084 [kJ/mol]
      Ind20,r                     -13.55476795 [mEh]      -8.50574531 [kcal/mol]     -35.58803836 [kJ/mol]
      Ind22                        -0.92803759 [mEh]      -0.58235238 [kcal/mol]      -2.43656237 [kJ/mol]
      Exch-Ind20,r                  2.08779431 [mEh]       1.31011071 [kcal/mol]       5.48150322 [kJ/mol]
      Exch-Ind22                    0.14294244 [mEh]       0.08969774 [kcal/mol]       0.37529533 [kJ/mol]
      delta HF,r (2)               -1.27277057 [mEh]      -0.79867559 [kcal/mol]      -3.34165866 [kJ/mol]

    Dispersion                     -0.10852272 [mEh]      -0.06809904 [kcal/mol]      -0.28492637 [kJ/mol]
      Disp20                       -0.10947537 [mEh]      -0.06869683 [kcal/mol]      -0.28742755 [kJ/mol]
      Disp21                       -0.00410826 [mEh]      -0.00257797 [kcal/mol]      -0.01078623 [kJ/mol]
      Disp22 (SDQ)                 -0.00091629 [mEh]      -0.00057498 [kcal/mol]      -0.00240572 [kJ/mol]
      Disp22 (T)                   -0.00671823 [mEh]      -0.00421575 [kcal/mol]      -0.01763871 [kJ/mol]
      Est. Disp22 (T)              -0.00830129 [mEh]      -0.00520914 [kcal/mol]      -0.02179502 [kJ/mol]
      Exch-Disp20                   0.01427848 [mEh]       0.00895988 [kcal/mol]       0.03748815 [kJ/mol]

  Total HF                        -37.93348653 [mEh]     -23.80362217 [kcal/mol]     -99.59435517 [kJ/mol]
  Total SAPT0                     -38.02868342 [mEh]     -23.86335912 [kcal/mol]     -99.84429457 [kJ/mol]
  Total SAPT2                     -38.39762336 [mEh]     -24.09487243 [kcal/mol]    -100.81294623 [kJ/mol]
  Total SAPT2+                    -38.41094919 [mEh]     -24.10323451 [kcal/mol]    -100.84793321 [kJ/mol]

  Special recipe for scaled SAPT0 (see Manual):
    Electrostatics sSAPT0         -26.66049355 [mEh]     -16.72971228 [kcal/mol]     -69.99711617 [kJ/mol]
    Exchange sSAPT0                 1.46675122 [mEh]       0.92040029 [kcal/mol]       3.85095481 [kJ/mol]
    Induction sSAPT0              -12.73736646 [mEh]      -7.99281812 [kcal/mol]     -33.44195103 [kJ/mol]
    Dispersion sSAPT0              -0.09518063 [mEh]      -0.05972675 [kcal/mol]      -0.24989670 [kJ/mol]
  Total sSAPT0                    -38.02628941 [mEh]     -23.86185686 [kcal/mol]     -99.83800910 [kJ/mol]
  --------------------------------------------------------------------------------------------------------

*** Psi4 exiting successfully. Buy a developer a beer!
