                               Psi4 1.9 release

  ==> Input File <==

--------------------------------------------------------------------------
MEMORY 60 GB

molecule dimer {
0 1
Cl     0.000000     0.000000     0.000000
Li     0.000000     2.029797     0.000000
--
1 1
Li     4.059594     0.000000     0.000000

units ang
no_reorient
no_com
symmetry c1
}

set {
basis        aug-cc-pVTZ
scf_type     df
}

energy("sapt2+")
--------------------------------------------------------------------------

  //              Dimer HF             //
    Molecular point group: c1
  Charge       = 1
  Multiplicity = 1
  Basis Set: AUG-CC-PVTZ
    Blend: AUG-CC-PVTZ
  Basis Set: (AUG-CC-PVTZ AUX)
    Blend: AUG-CC-PVTZ-JKFIT + DEF2-UNIVERSAL-JKFIT
  @DF-RHF Final Energy:  -474.30550281696048
    Total Energy =                       -474.3055028169604839
 Dipole X            :        -15.7981740           23.0145625            7.2163885
 Dipole Y            :         -8.6125364           11.5072813            2.8947449
 Dipole Z            :          0.0000000            0.0000000            0.0000000
 Magnitude           :                                                    7.7753335
  //            Monomer A HF           //
    Molecular point group: c1
  Multiplicity = 1
  Basis Set: AUG-CC-PVTZ
    Blend: AUG-CC-PVTZ
  Basis Set: (AUG-CC-PVTZ AUX)
    Blend: AUG-CC-PVTZ-JKFIT + DEF2-UNIVERSAL-JKFIT
  @DF-RHF Final Energy:  -467.05205920616413
    Total Energy =                       -467.0520592061641310
  //            Monomer B HF           //
    Molecular point group: c1

    Geometry (in Angstrom), charge = 1, multiplicity = 1:

       Center              X                  Y                   Z               Mass
    ------------   -----------------  -----------------  -----------------  -----------------
      Gh(CL)          0.000000000000     0.000000000000     0.000000000000    34.968852682000
      Gh(LI)          0.000000000000     2.029797000000     0.000000000000     7.016003436600
         LI           4.059594000000     0.000000000000     0.000000000000     7.016003436600

  Charge       = 1
  Multiplicity = 1
  Basis Set: AUG-CC-PVTZ
    Blend: AUG-CC-PVTZ
  Basis Set: (AUG-CC-PVTZ AUX)
    Blend: AUG-CC-PVTZ-JKFIT + DEF2-UNIVERSAL-JKFIT

    Orbital Energies [Eh]
    ---------------------

    Doubly Occupied:

       1A     -2.792367

  @DF-RHF Final Energy:    -7.23638287124181

   => Energetics <=

    Nuclear Repulsion Energy =              0.0000000000000000
    One-Electron Energy =                  -8.8880321786088317
    Two-Electron Energy =                   1.6516493073670235
    Total Energy =                         -7.2363828712418083
 Dipole X            :        -15.3430880           23.0145625            7.6714745
 Dipole Y            :          0.0000135            0.0000000            0.0000135
 Dipole Z            :         -0.0000000            0.0000000           -0.0000000
 Magnitude           :                                                    7.6714745

    SAPT Results
  --------------------------------------------------------------------------------------------------------
    Electrostatics                -12.66771198 [mEh]      -7.94910928 [kcal/mol]     -33.25907323 [kJ/mol]
      Elst10,r                    -12.78509043 [mEh]      -8.02276537 [kcal/mol]     -33.56725031 [kJ/mol]
      Elst12,r                      0.11737845 [mEh]       0.07365609 [kcal/mol]       0.30817708 [kJ/mol]

    Exchange                        0.06287221 [mEh]       0.03945291 [kcal/mol]       0.16507096 [kJ/mol]
      Exch10                        0.05468529 [mEh]       0.03431554 [kcal/mol]       0.14357621 [kJ/mol]
      Exch10(S^2)                   0.05468452 [mEh]       0.03431505 [kcal/mol]       0.14357418 [kJ/mol]
      Exch11(S^2)                  -0.00017960 [mEh]      -0.00011270 [kcal/mol]      -0.00047153 [kJ/mol]
      Exch12(S^2)                   0.00836651 [mEh]       0.00525007 [kcal/mol]       0.02196628 [kJ/mol]

    Induction                      -4.60238509 [mEh]      -2.88804025 [kcal/mol]     -12.08356040 [kJ/mol]
      Ind20,r                      -3.88374446 [mEh]      -2.43708644 [kcal/mol]     -10.19676966 [kJ/mol]
      Ind22                        -0.27899156 [mEh]      -0.17506985 [kcal/mol]      -0.73249224 [kJ/mol]
      Exch-Ind20,r                  0.09662154 [mEh]       0.06063093 [kcal/mol]       0.25367983 [kJ/mol]
      Exch-Ind22                    0.00694088 [mEh]       0.00435547 [kcal/mol]       0.01822327 [kJ/mol]
      delta HF,r (2)               -0.54321150 [mEh]      -0.34087036 [kcal/mol]      -1.42620159 [kJ/mol]

    Dispersion                     -0.01541040 [mEh]      -0.00967017 [kcal/mol]      -0.04045999 [kJ/mol]
      Disp20                       -0.01458150 [mEh]      -0.00915003 [kcal/mol]      -0.03828373 [kJ/mol]
      Disp21                       -0.00013606 [mEh]      -0.00008538 [kcal/mol]      -0.00035722 [kJ/mol]
      Disp22 (SDQ)                 -0.00016728 [mEh]      -0.00010497 [kcal/mol]      -0.00043919 [kJ/mol]
      Disp22 (T)                   -0.00099329 [mEh]      -0.00062330 [kcal/mol]      -0.00260789 [kJ/mol]
      Est. Disp22 (T)              -0.00116542 [mEh]      -0.00073131 [kcal/mol]      -0.00305981 [kJ/mol]
      Exch-Disp20                   0.00063986 [mEh]       0.00040152 [kcal/mol]       0.00167996 [kJ/mol]

  Total HF                        -17.06073955 [mEh]     -10.70577570 [kcal/mol]     -44.79296553 [kJ/mol]
  Total SAPT0                     -17.07468119 [mEh]     -10.71452421 [kcal/mol]     -44.82956930 [kJ/mol]
  Total SAPT2                     -17.22116651 [mEh]     -10.80644513 [kcal/mol]     -45.21416644 [kJ/mol]
  Total SAPT2+                    -17.22263527 [mEh]     -10.80736679 [kcal/mol]     -45.21802267 [kJ/mol]

  Special recipe for scaled SAPT0 (see Manual):
    Electrostatics sSAPT0         -12.78509043 [mEh]      -8.02276537 [kcal/mol]     -33.56725031 [kJ/mol]
    Exchange sSAPT0                 0.05468529 [mEh]       0.03431554 [kcal/mol]       0.14357621 [kJ/mol]
    Induction sSAPT0               -4.33033032 [mEh]      -2.71732330 [kcal/mol]     -11.36928068 [kJ/mol]
    Dispersion sSAPT0              -0.01394161 [mEh]      -0.00874849 [kcal/mol]      -0.03660370 [kJ/mol]
  Total sSAPT0                    -17.07467707 [mEh]     -10.71452163 [kcal/mol]     -44.82955848 [kJ/mol]
  --------------------------------------------------------------------------------------------------------

*** Psi4 exiting successfully. Buy a developer a beer!
