                               Psi4 1.9 release

  ==> Input File <==

--------------------------------------------------------------------------
MEMORY 60 GB

molecule dimer {
0 1
Cl     0.000000     0.000000     0.000000
Li     0.000000     2.029797     0.000000
--
1 1
Li     2.029797     0.000000     0.000000

units ang
no_reorient
no_com
symmetry c1
}

set {
basis        aug-cc-pVTZ
scf_type     df
}

energy("sapt2+")
--------------------------------------------------------------------------

  //              Dimer HF             //
    Molecular point group: c1
  Charge       = 1
  Multiplicity = 1
  Basis Set: AUG-CC-PVTZ
    Blend: AUG-CC-PVTZ
  Basis Set: (AUG-CC-PVTZ AUX)
    Blend: AUG-CC-PVTZ-JKFIT + DEF2-UNIVERSAL-JKFIT
  @DF-RHF Final Energy:  -474.34646434655662
    Total Energy =                       -474.3464643465566155
 Dipole X            :         -8.5419477           11.5072813            2.9653336
 Dipole Y            :         -8.5419477           11.5072813            2.9653336
 Dipole Z            :         -0.0000000            0.0000000           -0.0000000
 Magnitude           :                                                    4.1936149
  //            Monomer A HF           //
    Molecular point group: c1
  Multiplicity = 1
  Basis Set: AUG-CC-PVTZ
    Blend: AUG-CC-PVTZ
  Basis Set: (AUG-CC-PVTZ AUX)
    Blend: AUG-CC-PVTZ-JKFIT + DEF2-UNIVERSAL-JKFIT
  @DF-RHF Final Energy:  -467.05214470820584
    Total Energy =                       -467.0521447082058444
  //            Monomer B HF           //
    Molecular point group: c1

    Geometry (in Angstrom), charge = 1, multiplicity = 1:

       Center              X                  Y                   Z               Mass
    ------------   -----------------  -----------------  -----------------  -----------------
      Gh(CL)          0.000000000000     0.000000000000     0.000000000000    34.968852682000
      Gh(LI)          0.000000000000     2.029797000000     0.000000000000     7.016003436600
         LI           2.029797000000     0.000000000000     0.000000000000     7.016003436600

  Charge       = 1
  Multiplicity = 1
  Basis Set: AUG-CC-PVTZ
    Blend: AUG-CC-PVTZ
  Basis Set: (AUG-CC-PVTZ AUX)
    Blend: AUG-CC-PVTZ-JKFIT + DEF2-UNIVERSAL-JKFIT

    Orbital Energies [Eh]
    ---------------------

    Doubly Occupied:

       1A     -2.792370

  @DF-RHF Final Energy:    -7.23638345676708

   => Energetics <=

    Nuclear Repulsion Energy =              0.0000000000000000
    One-Electron Energy =                  -8.8880269634004492
    Two-Electron Energy =                   1.6516435066333690
    Total Energy =                         -7.2363834567670802
 Dipole X            :         -7.6715324           11.5072813            3.8357489
 Dipole Y            :          0.0000296            0.0000000            0.0000296
 Dipole Z            :          0.0000000            0.0000000            0.0000000
 Magnitude           :                                                    3.8357489

    SAPT Results
  --------------------------------------------------------------------------------------------------------
    Electrostatics                -62.11632167 [mEh]     -38.97858033 [kcal/mol]    -163.08638008 [kJ/mol]
      Elst10,r                    -63.60130831 [mEh]     -39.91042351 [kcal/mol]    -166.98521196 [kJ/mol]
      Elst12,r                      1.48498664 [mEh]       0.93184318 [kcal/mol]       3.89883188 [kJ/mol]

    Exchange                       42.03345025 [mEh]      26.37638825 [kcal/mol]     110.35880842 [kJ/mol]
      Exch10                       41.68273472 [mEh]      26.15631093 [kcal/mol]     109.43800492 [kJ/mol]
      Exch10(S^2)                  41.24440974 [mEh]      25.88125785 [kcal/mol]     108.28718286 [kJ/mol]
      Exch11(S^2)                  -0.51251094 [mEh]      -0.32160547 [kcal/mol]      -1.34559729 [kJ/mol]
      Exch12(S^2)                   0.86322647 [mEh]       0.54168279 [kcal/mol]       2.26640078 [kJ/mol]

    Induction                     -37.59765232 [mEh]     -23.59288302 [kcal/mol]     -98.71262256 [kJ/mol]
      Ind20,r                     -70.50043403 [mEh]     -44.23969026 [kcal/mol]    -185.09886404 [kJ/mol]
      Ind22                        -3.46497620 [mEh]      -2.17430539 [kcal/mol]      -9.09729376 [kJ/mol]
      Exch-Ind20,r                 38.35192729 [mEh]      24.06619771 [kcal/mol]     100.69297122 [kJ/mol]
      Exch-Ind22                    1.88493187 [mEh]       1.18281261 [kcal/mol]       4.94888795 [kJ/mol]
      delta HF,r (2)               -3.86910125 [mEh]      -2.42789769 [kcal/mol]     -10.15832393 [kJ/mol]

    Dispersion                     -1.35028739 [mEh]      -0.84731813 [kcal/mol]      -3.54517904 [kJ/mol]
      Disp20                       -1.45287641 [mEh]      -0.91169371 [kcal/mol]      -3.81452650 [kJ/mol]
      Disp21                       -0.04490778 [mEh]      -0.02818006 [kcal/mol]      -0.11790536 [kJ/mol]
      Disp22 (SDQ)                  0.01173670 [mEh]       0.00736489 [kcal/mol]       0.03081469 [kJ/mol]
      Disp22 (T)                   -0.07268511 [mEh]      -0.04561059 [kcal/mol]      -0.19083473 [kJ/mol]
      Est. Disp22 (T)              -0.08897410 [mEh]      -0.05583209 [kcal/mol]      -0.23360147 [kJ/mol]
      Exch-Disp20                   0.22473421 [mEh]       0.14102285 [kcal/mol]       0.59003959 [kJ/mol]

  Total HF                        -57.93618158 [mEh]     -36.35550282 [kcal/mol]    -152.11142379 [kJ/mol]
  Total SAPT0                     -59.16432379 [mEh]     -37.12617368 [kcal/mol]    -155.33591070 [kJ/mol]
  Total SAPT2                     -58.90866594 [mEh]     -36.96574597 [kcal/mol]    -154.66468113 [kJ/mol]
  Total SAPT2+                    -59.03081113 [mEh]     -37.04239323 [kcal/mol]    -154.98537326 [kJ/mol]

  Special recipe for scaled SAPT0 (see Manual):
    Electrostatics sSAPT0         -63.60130831 [mEh]     -39.91042351 [kcal/mol]    -166.98521196 [kJ/mol]
    Exchange sSAPT0                41.68273472 [mEh]      26.15631093 [kcal/mol]     109.43800492 [kJ/mol]
    Induction sSAPT0              -34.78181177 [mEh]     -21.82591640 [kcal/mol]     -91.31963423 [kJ/mol]
    Dispersion sSAPT0              -1.22090070 [mEh]      -0.76612675 [kcal/mol]      -3.20547434 [kJ/mol]
  Total sSAPT0                    -57.92128606 [mEh]     -36.34615574 [kcal/mol]    -152.07231561 [kJ/mol]
  --------------------------------------------------------------------------------------------------------

*** Psi4 exiting successfully. Buy a developer a beer!
