                               Psi4 1.9 release

  ==> Input File <==

--------------------------------------------------------------------------
MEMORY 60 GB

molecule dimer {
0 1
Li     0.000000     0.000000     0.000000
Cl     0.000000     2.029797     0.000000
--
-1 1
Cl     2.435756     0.000000     0.000000

units ang
no_reorient
no_com
symmetry c1
}

set {
basis        aug-cc-pVTZ
scf_type     df
}

energy("sapt2+")
--------------------------------------------------------------------------

  //              Dimer HF             //
    Molecular point group: c1
  Charge       = -1
  Multiplicity = 1
  Basis Set: AUG-CC-PVTZ
    Blend: AUG-CC-PVTZ
  Basis Set: (AUG-CC-PVTZ AUX)
    Blend: AUG-CC-PVTZ-JKFIT + DEF2-UNIVERSAL-JKFIT
  @DF-RHF Final Energy:  -926.65757944134202
    Total Energy =                       -926.6575794413420226
 Dipole X            :        -81.9979207           78.2494997           -3.7484210
 Dipole Y            :        -68.1220104           65.2079271           -2.9140833
 Dipole Z            :          0.0000000            0.0000000            0.0000000
 Magnitude           :                                                    4.7478986
  //            Monomer A HF           //
    Molecular point group: c1
  Multiplicity = 1
  Basis Set: AUG-CC-PVTZ
    Blend: AUG-CC-PVTZ
  Basis Set: (AUG-CC-PVTZ AUX)
    Blend: AUG-CC-PVTZ-JKFIT + DEF2-UNIVERSAL-JKFIT
  @DF-RHF Final Energy:  -467.05209488857071
    Total Energy =                       -467.0520948885707071
  //            Monomer B HF           //
    Molecular point group: c1

    Geometry (in Angstrom), charge = -1, multiplicity = 1:

       Center              X                  Y                   Z               Mass
    ------------   -----------------  -----------------  -----------------  -----------------
      Gh(LI)          0.000000000000     0.000000000000     0.000000000000     7.016003436600
      Gh(CL)          0.000000000000     2.029797000000     0.000000000000    34.968852682000
         CL           2.435756000000     0.000000000000     0.000000000000    34.968852682000

  Charge       = -1
  Multiplicity = 1
  Basis Set: AUG-CC-PVTZ
    Blend: AUG-CC-PVTZ
  Basis Set: (AUG-CC-PVTZ AUX)
    Blend: AUG-CC-PVTZ-JKFIT + DEF2-UNIVERSAL-JKFIT

    Orbital Energies [Eh]
    ---------------------

    Doubly Occupied:

       1A   -104.506506     2A    -10.229878     3A     -7.695935
       4A     -7.695928     5A     -7.695904     6A     -0.733498
       7A     -0.150336     8A     -0.150323     9A     -0.150322

  @DF-RHF Final Energy:  -459.57351480547084

   => Energetics <=

    Nuclear Repulsion Energy =              0.0000000000000000
    One-Electron Energy =                -641.1297653319155643
    Two-Electron Energy =                 181.5562505264447282
    Total Energy =                       -459.5735148054708361
 Dipole X            :        -82.8531574           78.2494997           -4.6036576
 Dipole Y            :          0.0001398            0.0000000            0.0001398
 Dipole Z            :          0.0000000            0.0000000            0.0000000
 Magnitude           :                                                    4.6036576

    SAPT Results
  --------------------------------------------------------------------------------------------------------
    Electrostatics                -52.48337287 [mEh]     -32.93381369 [kcal/mol]    -137.79507648 [kJ/mol]
      Elst10,r                    -50.85640304 [mEh]     -31.91287471 [kcal/mol]    -133.52346778 [kJ/mol]
      Elst12,r                     -1.62696983 [mEh]      -1.02093898 [kcal/mol]      -4.27160870 [kJ/mol]

    Exchange                       42.75689291 [mEh]      26.83035537 [kcal/mol]     112.25820688 [kJ/mol]
      Exch10                       39.01028508 [mEh]      24.47932346 [kcal/mol]     102.42148937 [kJ/mol]
      Exch10(S^2)                  38.21249513 [mEh]      23.97870271 [kcal/mol]     100.32689213 [kJ/mol]
      Exch11(S^2)                   1.24048883 [mEh]       0.77841849 [kcal/mol]       3.25690297 [kJ/mol]
      Exch12(S^2)                   2.50611901 [mEh]       1.57261342 [kcal/mol]       6.57981454 [kJ/mol]

    Induction                     -21.99563781 [mEh]     -13.80247111 [kcal/mol]     -57.74953911 [kJ/mol]
      Ind20,r                     -59.14658240 [mEh]     -37.11504080 [kcal/mol]    -155.28933069 [kJ/mol]
      Ind22                        -6.62462755 [mEh]      -4.15701655 [kcal/mol]     -17.39295724 [kJ/mol]
      Exch-Ind20,r                 42.43275176 [mEh]      26.62695373 [kcal/mol]     111.40717440 [kJ/mol]
      Exch-Ind22                    4.75261909 [mEh]       2.98231350 [kcal/mol]      12.47799969 [kJ/mol]
      delta HF,r (2)               -3.40979870 [mEh]      -2.13968099 [kcal/mol]      -8.95242526 [kJ/mol]

    Dispersion                     -9.29815271 [mEh]      -5.83467891 [kcal/mol]     -24.41229657 [kJ/mol]
      Disp20                      -12.91131005 [mEh]      -8.10196937 [kcal/mol]     -33.89863986 [kJ/mol]
      Disp21                        1.58758615 [mEh]       0.99622535 [kcal/mol]       4.16820686 [kJ/mol]
      Disp22 (SDQ)                  0.14634933 [mEh]       0.09183559 [kcal/mol]       0.38424011 [kJ/mol]
      Disp22 (T)                   -2.00924306 [mEh]      -1.26081906 [kcal/mol]      -5.27526694 [kJ/mol]
      Est. Disp22 (T)              -2.26884357 [mEh]      -1.42372083 [kcal/mol]      -5.95684797 [kJ/mol]
      Exch-Disp20                   4.14806543 [mEh]       2.60295036 [kcal/mol]      10.89074429 [kJ/mol]

  Total HF                        -31.96974730 [mEh]     -20.06131931 [kcal/mol]     -83.93655997 [kJ/mol]
  Total SAPT0                     -40.73299192 [mEh]     -25.56033832 [kcal/mol]    -106.94445555 [kJ/mol]
  Total SAPT2                     -40.48536238 [mEh]     -25.40494844 [kcal/mol]    -106.29430428 [kJ/mol]
  Total SAPT2+                    -41.02027047 [mEh]     -25.74060834 [kcal/mol]    -107.69870528 [kJ/mol]

  Special recipe for scaled SAPT0 (see Manual):
    Electrostatics sSAPT0         -50.85640304 [mEh]     -31.91287471 [kcal/mol]    -133.52346778 [kJ/mol]
    Exchange sSAPT0                39.01028508 [mEh]      24.47932346 [kcal/mol]     102.42148937 [kJ/mol]
    Induction sSAPT0              -17.41005858 [mEh]     -10.92497670 [kcal/mol]     -45.71010251 [kJ/mol]
    Dispersion sSAPT0              -8.49797620 [mEh]      -5.33256057 [kcal/mol]     -22.31143343 [kJ/mol]
  Total sSAPT0                    -37.75415273 [mEh]     -23.69108852 [kcal/mol]     -99.12351435 [kJ/mol]
  --------------------------------------------------------------------------------------------------------

*** Psi4 exiting successfully. Buy a developer a beer!
