                               Psi4 1.9 release

  ==> Input File <==

--------------------------------------------------------------------------
MEMORY 60 GB

molecule dimer {
0 1
Li     0.000000     0.000000     0.000000
Cl     0.000000     2.029797     0.000000
--
-1 1
Cl     2.232777     0.000000     0.000000

units ang
no_reorient
no_com
symmetry c1
}

set {
basis        aug-cc-pVTZ
scf_type     df
}

energy("sapt2+")
--------------------------------------------------------------------------

  //              Dimer HF             //
    Molecular point group: c1
  Charge       = -1
  Multiplicity = 1
  Basis Set: AUG-CC-PVTZ
    Blend: AUG-CC-PVTZ
  Basis Set: (AUG-CC-PVTZ AUX)
    Blend: AUG-CC-PVTZ-JKFIT + DEF2-UNIVERSAL-JKFIT
  @DF-RHF Final Energy:  -926.65557589936464
    Total Energy =                       -926.6555758993646350
 Dipole X            :        -75.0644937           71.7287295           -3.3357642
 Dipole Y            :        -68.1367591           65.2079271           -2.9288319
 Dipole Z            :          0.0000000            0.0000000            0.0000000
 Magnitude           :                                                    4.4390742
  //            Monomer A HF           //
    Molecular point group: c1
  Multiplicity = 1
  Basis Set: AUG-CC-PVTZ
    Blend: AUG-CC-PVTZ
  Basis Set: (AUG-CC-PVTZ AUX)
    Blend: AUG-CC-PVTZ-JKFIT + DEF2-UNIVERSAL-JKFIT
  @DF-RHF Final Energy:  -467.05210688350081
    Total Energy =                       -467.0521068835008123
  //            Monomer B HF           //
    Molecular point group: c1

    Geometry (in Angstrom), charge = -1, multiplicity = 1:

       Center              X                  Y                   Z               Mass
    ------------   -----------------  -----------------  -----------------  -----------------
      Gh(LI)          0.000000000000     0.000000000000     0.000000000000     7.016003436600
      Gh(CL)          0.000000000000     2.029797000000     0.000000000000    34.968852682000
         CL           2.232777000000     0.000000000000     0.000000000000    34.968852682000

  Charge       = -1
  Multiplicity = 1
  Basis Set: AUG-CC-PVTZ
    Blend: AUG-CC-PVTZ
  Basis Set: (AUG-CC-PVTZ AUX)
    Blend: AUG-CC-PVTZ-JKFIT + DEF2-UNIVERSAL-JKFIT

    Orbital Energies [Eh]
    ---------------------

    Doubly Occupied:

       1A   -104.506594     2A    -10.229900     3A     -7.695960
       4A     -7.695952     5A     -7.695928     6A     -0.733496
       7A     -0.150333     8A     -0.150323     9A     -0.150322

  @DF-RHF Final Energy:  -459.57351998419705

   => Energetics <=

    Nuclear Repulsion Energy =              0.0000000000000000
    One-Electron Energy =                -641.1294217870201919
    Two-Electron Energy =                 181.5559018028231435
    Total Energy =                       -459.5735199841970484
 Dipole X            :        -75.9489336           71.7287295           -4.2202041
 Dipole Y            :          0.0001543            0.0000000            0.0001543
 Dipole Z            :          0.0000000            0.0000000            0.0000000
 Magnitude           :                                                    4.2202042

    SAPT Results
  --------------------------------------------------------------------------------------------------------
    Electrostatics                -70.02282725 [mEh]     -43.93998748 [kcal/mol]    -183.84490762 [kJ/mol]
      Elst10,r                    -67.74575653 [mEh]     -42.51110403 [kcal/mol]    -177.86645926 [kJ/mol]
      Elst12,r                     -2.27707072 [mEh]      -1.42888345 [kcal/mol]      -5.97844836 [kJ/mol]

    Exchange                       68.42565409 [mEh]      42.93774619 [kcal/mol]     179.65153007 [kJ/mol]
      Exch10                       63.58102142 [mEh]      39.89769330 [kcal/mol]     166.93194875 [kJ/mol]
      Exch10(S^2)                  61.70267124 [mEh]      38.71901076 [kcal/mol]     162.00034102 [kJ/mol]
      Exch11(S^2)                   1.50145902 [mEh]       0.94217976 [kcal/mol]       3.94208011 [kJ/mol]
      Exch12(S^2)                   3.34317365 [mEh]       2.09787314 [kcal/mol]       8.77750121 [kJ/mol]

    Induction                     -28.05835750 [mEh]     -17.60688515 [kcal/mol]     -73.66720748 [kJ/mol]
      Ind20,r                     -90.53531452 [mEh]     -56.81176757 [kcal/mol]    -237.70043553 [kJ/mol]
      Ind22                        -9.60446493 [mEh]      -6.02689273 [kcal/mol]     -25.21651919 [kJ/mol]
      Exch-Ind20,r                 69.09915705 [mEh]      43.36037568 [kcal/mol]     181.41981183 [kJ/mol]
      Exch-Ind22                    7.33040398 [mEh]       4.59989795 [kcal/mol]      19.24597301 [kJ/mol]
      delta HF,r (2)               -4.34813908 [mEh]      -2.72849847 [kcal/mol]     -11.41603759 [kJ/mol]

    Dispersion                    -11.95384938 [mEh]      -7.50115374 [kcal/mol]     -31.38482723 [kJ/mol]
      Disp20                      -17.24653258 [mEh]     -10.82236258 [kcal/mol]     -45.28076505 [kJ/mol]
      Disp21                        2.21570050 [mEh]       1.39037305 [kcal/mol]       5.81732086 [kJ/mol]
      Disp22 (SDQ)                  0.22134948 [mEh]       0.13889890 [kcal/mol]       0.58115298 [kJ/mol]
      Disp22 (T)                   -2.63182059 [mEh]      -1.65149235 [kcal/mol]      -6.90984400 [kJ/mol]
      Est. Disp22 (T)              -2.92302481 [mEh]      -1.83422576 [kcal/mol]      -7.67440058 [kJ/mol]
      Exch-Disp20                   5.77865802 [mEh]       3.62616266 [kcal/mol]      15.17186455 [kJ/mol]

  Total HF                        -29.94903167 [mEh]     -18.79330110 [kcal/mol]     -78.63117181 [kJ/mol]
  Total SAPT0                     -41.41690622 [mEh]     -25.98950103 [kcal/mol]    -108.74007230 [kJ/mol]
  Total SAPT2                     -41.12340522 [mEh]     -25.80532637 [kcal/mol]    -107.96948552 [kJ/mol]
  Total SAPT2+                    -41.60938005 [mEh]     -26.11028018 [kcal/mol]    -109.24541226 [kJ/mol]

  Special recipe for scaled SAPT0 (see Manual):
    Electrostatics sSAPT0         -67.74575653 [mEh]     -42.51110403 [kcal/mol]    -177.86645926 [kJ/mol]
    Exchange sSAPT0                63.58102142 [mEh]      39.89769330 [kcal/mol]     166.93194875 [kJ/mol]
    Induction sSAPT0              -19.27970087 [mEh]     -12.09819494 [kcal/mol]     -50.61884765 [kJ/mol]
    Dispersion sSAPT0             -10.92390505 [mEh]      -6.85485391 [kcal/mol]     -28.68070876 [kJ/mol]
  Total sSAPT0                    -34.36834102 [mEh]     -21.56645959 [kcal/mol]     -90.23406692 [kJ/mol]
  --------------------------------------------------------------------------------------------------------

*** Psi4 exiting successfully. Buy a developer a beer!
