                               Psi4 1.9 release

  ==> Input File <==

--------------------------------------------------------------------------
MEMORY 60 GB

molecule dimer {
0 1
Li     0.000000     0.000000     0.000000
Cl     0.000000     2.029797     0.000000
--
-1 1
Cl     2.638736     0.000000     0.000000

units ang
no_reorient
no_com
symmetry c1
}

set {
basis        aug-cc-pVTZ
scf_type     df
}

energy("sapt2+")
--------------------------------------------------------------------------

  //              Dimer HF             //
    Molecular point group: c1
  Charge       = -1
  Multiplicity = 1
  Basis Set: AUG-CC-PVTZ
    Blend: AUG-CC-PVTZ
  Basis Set: (AUG-CC-PVTZ AUX)
    Blend: AUG-CC-PVTZ-JKFIT + DEF2-UNIVERSAL-JKFIT
  @DF-RHF Final Energy:  -926.65602467088968
    Total Energy =                       -926.6560246708895647
 Dipole X            :        -88.9466215           84.7703021           -4.1763194
 Dipole Y            :        -68.1091943           65.2079271           -2.9012672
 Dipole Z            :          0.0000000            0.0000000            0.0000000
 Magnitude           :                                                    5.0851740
  //            Monomer A HF           //
    Molecular point group: c1
  Multiplicity = 1
  Basis Set: AUG-CC-PVTZ
    Blend: AUG-CC-PVTZ
  Basis Set: (AUG-CC-PVTZ AUX)
    Blend: AUG-CC-PVTZ-JKFIT + DEF2-UNIVERSAL-JKFIT
  @DF-RHF Final Energy:  -467.05208560326355
    Total Energy =                       -467.0520856032635493
  //            Monomer B HF           //
    Molecular point group: c1

    Geometry (in Angstrom), charge = -1, multiplicity = 1:

       Center              X                  Y                   Z               Mass
    ------------   -----------------  -----------------  -----------------  -----------------
      Gh(LI)          0.000000000000     0.000000000000     0.000000000000     7.016003436600
      Gh(CL)          0.000000000000     2.029797000000     0.000000000000    34.968852682000
         CL           2.638736000000     0.000000000000     0.000000000000    34.968852682000

  Charge       = -1
  Multiplicity = 1
  Basis Set: AUG-CC-PVTZ
    Blend: AUG-CC-PVTZ
  Basis Set: (AUG-CC-PVTZ AUX)
    Blend: AUG-CC-PVTZ-JKFIT + DEF2-UNIVERSAL-JKFIT

    Orbital Energies [Eh]
    ---------------------

    Doubly Occupied:

       1A   -104.506431     2A    -10.229859     3A     -7.695915
       4A     -7.695909     5A     -7.695884     6A     -0.733500
       7A     -0.150338     8A     -0.150324     9A     -0.150323

  @DF-RHF Final Energy:  -459.57351044977906

   => Energetics <=

    Nuclear Repulsion Energy =              0.0000000000000000
    One-Electron Energy =                -641.1300531689987565
    Two-Electron Energy =                 181.5565427192196921
    Total Energy =                       -459.5735104497790644
 Dipole X            :        -89.7574081           84.7703021           -4.9871061
 Dipole Y            :          0.0001215            0.0000000            0.0001215
 Dipole Z            :          0.0000000            0.0000000            0.0000000
 Magnitude           :                                                    4.9871061

    SAPT Results
  --------------------------------------------------------------------------------------------------------
    Electrostatics                -39.62179029 [mEh]     -24.86304878 [kcal/mol]    -104.02699607 [kJ/mol]
      Elst10,r                    -38.53428128 [mEh]     -24.18062657 [kcal/mol]    -101.17174156 [kJ/mol]
      Elst12,r                     -1.08750901 [mEh]      -0.68242221 [kcal/mol]      -2.85525452 [kJ/mol]

    Exchange                       26.67802034 [mEh]      16.74071051 [kcal/mol]      70.04313276 [kJ/mol]
      Exch10                       23.92445463 [mEh]      15.01282193 [kcal/mol]      62.81364697 [kJ/mol]
      Exch10(S^2)                  23.59221959 [mEh]      14.80434130 [kcal/mol]      61.94136400 [kJ/mol]
      Exch11(S^2)                   0.94102309 [mEh]       0.59050091 [kcal/mol]       2.47065580 [kJ/mol]
      Exch12(S^2)                   1.81254262 [mEh]       1.13738766 [kcal/mol]       4.75882999 [kJ/mol]

    Induction                     -17.38073546 [mEh]     -10.90657616 [kcal/mol]     -45.63311465 [kJ/mol]
      Ind20,r                     -39.14624727 [mEh]     -24.56464102 [kcal/mol]    -102.77845805 [kJ/mol]
      Ind22                        -4.57099987 [mEh]      -2.86834573 [kcal/mol]     -12.00115851 [kJ/mol]
      Exch-Ind20,r                 25.76968681 [mEh]      16.17072261 [kcal/mol]      67.65830340 [kJ/mol]
      Exch-Ind22                    3.00905561 [mEh]       1.88821091 [kcal/mol]       7.90027443 [kJ/mol]
      delta HF,r (2)               -2.44223074 [mEh]      -1.53252293 [kcal/mol]      -6.41207592 [kJ/mol]

    Dispersion                     -7.23149484 [mEh]      -4.53783152 [kcal/mol]     -18.98628710 [kJ/mol]
      Disp20                       -9.62522637 [mEh]      -6.03992074 [kcal/mol]     -25.27102836 [kJ/mol]
      Disp21                        1.13405749 [mEh]       0.71163182 [kcal/mol]       2.97746754 [kJ/mol]
      Disp22 (SDQ)                  0.09187656 [mEh]       0.05765341 [kcal/mol]       0.24122187 [kJ/mol]
      Disp22 (T)                   -1.53489469 [mEh]      -0.96316096 [kcal/mol]      -4.02986546 [kJ/mol]
      Est. Disp22 (T)              -1.74690026 [mEh]      -1.09619646 [kcal/mol]      -4.58648599 [kJ/mol]
      Exch-Disp20                   2.91469774 [mEh]       1.82900044 [kcal/mol]       7.65253785 [kJ/mol]

  Total HF                        -30.42861785 [mEh]     -19.09424597 [kcal/mol]     -79.89032515 [kJ/mol]
  Total SAPT0                     -37.13914648 [mEh]     -23.30516627 [kcal/mol]     -97.50881566 [kJ/mol]
  Total SAPT2                     -37.03503404 [mEh]     -23.23983472 [kcal/mol]     -97.23546848 [kJ/mol]
  Total SAPT2+                    -37.55600025 [mEh]     -23.56674595 [kcal/mol]     -98.60326507 [kJ/mol]

  Special recipe for scaled SAPT0 (see Manual):
    Electrostatics sSAPT0         -38.53428128 [mEh]     -24.18062657 [kcal/mol]    -101.17174156 [kJ/mol]
    Exchange sSAPT0                23.92445463 [mEh]      15.01282193 [kcal/mol]      62.81364697 [kJ/mol]
    Induction sSAPT0              -14.71469076 [mEh]      -9.23360786 [kcal/mol]     -38.63341528 [kJ/mol]
    Dispersion sSAPT0              -6.58564862 [mEh]      -4.13255690 [kcal/mol]     -17.29061806 [kJ/mol]
  Total sSAPT0                    -35.91016603 [mEh]     -22.53396939 [kcal/mol]     -94.28212792 [kJ/mol]
  --------------------------------------------------------------------------------------------------------

*** Psi4 exiting successfully. Buy a developer a beer!
