                               Psi4 1.9 release

  ==> Input File <==

--------------------------------------------------------------------------
MEMORY 60 GB

molecule dimer {
0 1
Li     0.000000     0.000000     0.000000
Cl     0.000000     2.029797     0.000000
--
-1 1
Cl     4.059594     0.000000     0.000000

units ang
no_reorient
no_com
symmetry c1
}

set {
basis        aug-cc-pVTZ
scf_type     df
}

energy("sapt2+")
--------------------------------------------------------------------------

  //              Dimer HF             //
    Molecular point group: c1
  Charge       = -1
  Multiplicity = 1
  Basis Set: AUG-CC-PVTZ
    Blend: AUG-CC-PVTZ
  Basis Set: (AUG-CC-PVTZ AUX)
    Blend: AUG-CC-PVTZ-JKFIT + DEF2-UNIVERSAL-JKFIT
  @DF-RHF Final Energy:  -926.63689623066932
    Total Energy =                       -926.6368962306693220
 Dipole X            :       -137.6606769          130.4158543           -7.2448226
 Dipole Y            :        -68.0842391           65.2079271           -2.8763119
 Dipole Z            :          0.0000000            0.0000000            0.0000000
 Magnitude           :                                                    7.7949102
  //            Monomer A HF           //
    Molecular point group: c1
  Multiplicity = 1
  Basis Set: AUG-CC-PVTZ
    Blend: AUG-CC-PVTZ
  Basis Set: (AUG-CC-PVTZ AUX)
    Blend: AUG-CC-PVTZ-JKFIT + DEF2-UNIVERSAL-JKFIT
  @DF-RHF Final Energy:  -467.05205540318218
    Total Energy =                       -467.0520554031821803
  //            Monomer B HF           //
    Molecular point group: c1

    Geometry (in Angstrom), charge = -1, multiplicity = 1:

       Center              X                  Y                   Z               Mass
    ------------   -----------------  -----------------  -----------------  -----------------
      Gh(LI)          0.000000000000     0.000000000000     0.000000000000     7.016003436600
      Gh(CL)          0.000000000000     2.029797000000     0.000000000000    34.968852682000
         CL           4.059594000000     0.000000000000     0.000000000000    34.968852682000

  Charge       = -1
  Multiplicity = 1
  Basis Set: AUG-CC-PVTZ
    Blend: AUG-CC-PVTZ
  Basis Set: (AUG-CC-PVTZ AUX)
    Blend: AUG-CC-PVTZ-JKFIT + DEF2-UNIVERSAL-JKFIT

    Orbital Energies [Eh]
    ---------------------

    Doubly Occupied:

       1A   -104.506114     2A    -10.229781     3A     -7.695822
       4A     -7.695821     5A     -7.695808     6A     -0.733510
       7A     -0.150339     8A     -0.150334     9A     -0.150333

  @DF-RHF Final Energy:  -459.57349136315713

   => Energetics <=

    Nuclear Repulsion Energy =              0.0000000000000000
    One-Electron Energy =                -641.1312580375804373
    Two-Electron Energy =                 181.5577666744233056
    Total Energy =                       -459.5734913631571317
 Dipole X            :       -138.0875685          130.4158543           -7.6717142
 Dipole Y            :         -0.0001026            0.0000000           -0.0001026
 Dipole Z            :          0.0000000            0.0000000            0.0000000
 Magnitude           :                                                    7.6717142

    SAPT Results
  --------------------------------------------------------------------------------------------------------
    Electrostatics                 -8.53330691 [mEh]      -5.35473093 [kcal/mol]     -22.40419421 [kJ/mol]
      Elst10,r                     -8.72332760 [mEh]      -5.47397071 [kcal/mol]     -22.90309347 [kJ/mol]
      Elst12,r                      0.19002069 [mEh]       0.11923979 [kcal/mol]       0.49889926 [kJ/mol]

    Exchange                        0.89681762 [mEh]       0.56276156 [kcal/mol]       2.35459435 [kJ/mol]
      Exch10                        0.72504893 [mEh]       0.45497507 [kcal/mol]       1.90361570 [kJ/mol]
      Exch10(S^2)                   0.72465315 [mEh]       0.45472671 [kcal/mol]       1.90257657 [kJ/mol]
      Exch11(S^2)                   0.05259774 [mEh]       0.03300558 [kcal/mol]       0.13809535 [kJ/mol]
      Exch12(S^2)                   0.11917095 [mEh]       0.07478090 [kcal/mol]       0.31288330 [kJ/mol]

    Induction                      -3.71232448 [mEh]      -2.32951878 [kcal/mol]      -9.74670659 [kJ/mol]
      Ind20,r                      -4.07897478 [mEh]      -2.55959532 [kcal/mol]     -10.70934681 [kJ/mol]
      Ind22                        -0.44672338 [mEh]      -0.28032315 [kcal/mol]      -1.17287206 [kJ/mol]
      Exch-Ind20,r                  0.78146169 [mEh]       0.49037462 [kcal/mol]       2.05172739 [kJ/mol]
      Exch-Ind22                    0.08558455 [mEh]       0.05370511 [kcal/mol]       0.22470220 [kJ/mol]
      delta HF,r (2)               -0.05367257 [mEh]      -0.03368004 [kcal/mol]      -0.14091730 [kJ/mol]

    Dispersion                     -1.19626220 [mEh]      -0.75066586 [kcal/mol]      -3.14078597 [kJ/mol]
      Disp20                       -1.23449047 [mEh]      -0.77465446 [kcal/mol]      -3.24115428 [kJ/mol]
      Disp21                        0.13105849 [mEh]       0.08224044 [kcal/mol]       0.34409401 [kJ/mol]
      Disp22 (SDQ)                 -0.00486695 [mEh]      -0.00305406 [kcal/mol]      -0.01277817 [kJ/mol]
      Disp22 (T)                   -0.22738651 [mEh]      -0.14268719 [kcal/mol]      -0.59700320 [kJ/mol]
      Est. Disp22 (T)              -0.25925959 [mEh]      -0.16268785 [kcal/mol]      -0.68068596 [kJ/mol]
      Exch-Disp20                   0.17129632 [mEh]       0.10749006 [kcal/mol]       0.44973842 [kJ/mol]

  Total HF                        -11.34946433 [mEh]      -7.12189639 [kcal/mol]     -29.79801449 [kJ/mol]
  Total SAPT0                     -12.41265848 [mEh]      -7.78906079 [kcal/mol]     -32.58943035 [kJ/mol]
  Total SAPT2                     -12.41200792 [mEh]      -7.78865256 [kcal/mol]     -32.58772231 [kJ/mol]
  Total SAPT2+                    -12.54507597 [mEh]      -7.87215402 [kcal/mol]     -32.93709243 [kJ/mol]

  Special recipe for scaled SAPT0 (see Manual):
    Electrostatics sSAPT0          -8.72332760 [mEh]      -5.47397071 [kcal/mol]     -22.90309347 [kJ/mol]
    Exchange sSAPT0                 0.72504893 [mEh]       0.45497507 [kcal/mol]       1.90361570 [kJ/mol]
    Induction sSAPT0               -3.34990453 [mEh]      -2.10209683 [kcal/mol]      -8.79517312 [kJ/mol]
    Dispersion sSAPT0              -1.06291333 [mEh]      -0.66698818 [kcal/mol]      -2.79067856 [kJ/mol]
  Total sSAPT0                    -12.41109653 [mEh]      -7.78808065 [kcal/mol]     -32.58532945 [kJ/mol]
  --------------------------------------------------------------------------------------------------------

*** Psi4 exiting successfully. Buy a developer a beer!
