                               Psi4 1.9 release

  ==> Input File <==

--------------------------------------------------------------------------
MEMORY 60 GB

molecule dimer {
0 1
Li     0.000000     0.000000     0.000000
Cl     0.000000     2.029797     0.000000
--
-1 1
Cl     2.841716     0.000000     0.000000

units ang
no_reorient
no_com
symmetry c1
}

set {
basis        aug-cc-pVTZ
scf_type     df
}

energy("sapt2+")
--------------------------------------------------------------------------

  //              Dimer HF             //
    Molecular point group: c1
  Charge       = -1
  Multiplicity = 1
  Basis Set: AUG-CC-PVTZ
    Blend: AUG-CC-PVTZ
  Basis Set: (AUG-CC-PVTZ AUX)
    Blend: AUG-CC-PVTZ-JKFIT + DEF2-UNIVERSAL-JKFIT
  @DF-RHF Final Energy:  -926.65303918324264
    Total Energy =                       -926.6530391832426403
 Dipole X            :        -95.9051878           91.2911044           -4.6140834
 Dipole Y            :        -68.0992073           65.2079271           -2.8912802
 Dipole Z            :         -0.0000000            0.0000000           -0.0000000
 Magnitude           :                                                    5.4451140
  //            Monomer A HF           //
    Molecular point group: c1
  Multiplicity = 1
  Basis Set: AUG-CC-PVTZ
    Blend: AUG-CC-PVTZ
  Basis Set: (AUG-CC-PVTZ AUX)
    Blend: AUG-CC-PVTZ-JKFIT + DEF2-UNIVERSAL-JKFIT
  @DF-RHF Final Energy:  -467.05207704136797
    Total Energy =                       -467.0520770413679656
  //            Monomer B HF           //
    Molecular point group: c1

    Geometry (in Angstrom), charge = -1, multiplicity = 1:

       Center              X                  Y                   Z               Mass
    ------------   -----------------  -----------------  -----------------  -----------------
      Gh(LI)          0.000000000000     0.000000000000     0.000000000000     7.016003436600
      Gh(CL)          0.000000000000     2.029797000000     0.000000000000    34.968852682000
         CL           2.841716000000     0.000000000000     0.000000000000    34.968852682000

  Charge       = -1
  Multiplicity = 1
  Basis Set: AUG-CC-PVTZ
    Blend: AUG-CC-PVTZ
  Basis Set: (AUG-CC-PVTZ AUX)
    Blend: AUG-CC-PVTZ-JKFIT + DEF2-UNIVERSAL-JKFIT

    Orbital Energies [Eh]
    ---------------------

    Doubly Occupied:

       1A   -104.506370     2A    -10.229844     3A     -7.695897
       4A     -7.695892     5A     -7.695867     6A     -0.733502
       7A     -0.150339     8A     -0.150326     9A     -0.150325

  @DF-RHF Final Energy:  -459.57350677563818

   => Energetics <=

    Nuclear Repulsion Energy =              0.0000000000000000
    One-Electron Energy =                -641.1302888212503603
    Two-Electron Energy =                 181.5567820456121240
    Total Energy =                       -459.5735067756382364
 Dipole X            :        -96.6616783           91.2911044           -5.3705739
 Dipole Y            :          0.0001135            0.0000000            0.0001135
 Dipole Z            :          0.0000000            0.0000000            0.0000000
 Magnitude           :                                                    5.3705739

    SAPT Results
  --------------------------------------------------------------------------------------------------------
    Electrostatics                -30.27726390 [mEh]     -18.99926994 [kcal/mol]     -79.49294541 [kJ/mol]
      Elst10,r                    -29.60931141 [mEh]     -18.58012342 [kcal/mol]     -77.73923641 [kJ/mol]
      Elst12,r                     -0.66795248 [mEh]      -0.41914651 [kcal/mol]      -1.75370900 [kJ/mol]

    Exchange                       16.59240958 [mEh]      10.41189421 [kcal/mol]      43.56336536 [kJ/mol]
      Exch10                       14.63912321 [mEh]       9.18618851 [kcal/mol]      38.43501271 [kJ/mol]
      Exch10(S^2)                  14.50379763 [mEh]       9.10127042 [kcal/mol]      38.07971543 [kJ/mol]
      Exch11(S^2)                   0.67494652 [mEh]       0.42353534 [kcal/mol]       1.77207185 [kJ/mol]
      Exch12(S^2)                   1.27833985 [mEh]       0.80217037 [kcal/mol]       3.35628081 [kJ/mol]

    Induction                     -13.78570136 [mEh]      -8.65065821 [kcal/mol]     -36.19435394 [kJ/mol]
      Ind20,r                     -26.39664039 [mEh]     -16.56414192 [kcal/mol]     -69.30436979 [kJ/mol]
      Ind22                        -3.16897844 [mEh]      -1.98856399 [kcal/mol]      -8.32015175 [kJ/mol]
      Exch-Ind20,r                 15.56367096 [mEh]       9.76635098 [kcal/mol]      40.86241248 [kJ/mol]
      Exch-Ind22                    1.86845511 [mEh]       1.17247329 [kcal/mol]       4.90562823 [kJ/mol]
      delta HF,r (2)               -1.65220861 [mEh]      -1.03677656 [kcal/mol]      -4.33787311 [kJ/mol]

    Dispersion                     -5.61388745 [mEh]      -3.52276756 [kcal/mol]     -14.73925947 [kJ/mol]
      Disp20                       -7.15475029 [mEh]      -4.48967359 [kcal/mol]     -18.78479429 [kJ/mol]
      Disp21                        0.81105493 [mEh]       0.50894466 [kcal/mol]       2.12942444 [kJ/mol]
      Disp22 (SDQ)                  0.05414256 [mEh]       0.03397497 [kcal/mol]       0.14215128 [kJ/mol]
      Disp22 (T)                   -1.16137095 [mEh]      -0.72877128 [kcal/mol]      -3.04917902 [kJ/mol]
      Est. Disp22 (T)              -1.33650648 [mEh]      -0.83867048 [kcal/mol]      -3.50899728 [kJ/mol]
      Exch-Disp20                   2.01217182 [mEh]       1.26265688 [kcal/mol]       5.28295639 [kJ/mol]

  Total HF                        -27.45536624 [mEh]     -17.22850242 [kcal/mol]     -72.08405412 [kJ/mol]
  Total SAPT0                     -32.59794470 [mEh]     -20.45551913 [kcal/mol]     -85.58589203 [kJ/mol]
  Total SAPT2                     -32.61313414 [mEh]     -20.46505064 [kcal/mol]     -85.62577190 [kJ/mol]
  Total SAPT2+                    -33.08444313 [mEh]     -20.76080150 [kcal/mol]     -86.86319346 [kJ/mol]

  Special recipe for scaled SAPT0 (see Manual):
    Electrostatics sSAPT0         -29.60931141 [mEh]     -18.58012342 [kcal/mol]     -77.73923641 [kJ/mol]
    Exchange sSAPT0                14.63912321 [mEh]       9.18618851 [kcal/mol]      38.43501271 [kJ/mol]
    Induction sSAPT0              -12.04545694 [mEh]      -7.55863835 [kcal/mol]     -31.62534285 [kJ/mol]
    Dispersion sSAPT0              -5.08572849 [mEh]      -3.19134281 [kcal/mol]     -13.35257830 [kJ/mol]
  Total sSAPT0                    -32.10137363 [mEh]     -20.14391607 [kcal/mol]     -84.28214486 [kJ/mol]
  --------------------------------------------------------------------------------------------------------

*** Psi4 exiting successfully. Buy a developer a beer!
