                               Psi4 1.9 release

  ==> Input File <==

--------------------------------------------------------------------------
MEMORY 60 GB

molecule dimer {
0 1
Li     0.000000     0.000000     0.000000
Cl     0.000000     2.029797     0.000000
--
-1 1
Cl     2.029797     0.000000     0.000000

units ang
no_reorient
no_com
symmetry c1
}

set {
basis        aug-cc-pVTZ
scf_type     df
}

energy("sapt2+")
--------------------------------------------------------------------------

  //              Dimer HF             //
    Molecular point group: c1
  Charge       = -1
  Multiplicity = 1
  Basis Set: AUG-CC-PVTZ
    Blend: AUG-CC-PVTZ
  Basis Set: (AUG-CC-PVTZ AUX)
    Blend: AUG-CC-PVTZ-JKFIT + DEF2-UNIVERSAL-JKFIT
  @DF-RHF Final Energy:  -926.64575605469008
    Total Energy =                       -926.6457560546900822
 Dipole X            :        -68.1510220           65.2079271           -2.9430948
 Dipole Y            :        -68.1510220           65.2079271           -2.9430948
 Dipole Z            :          0.0000000            0.0000000            0.0000000
 Magnitude           :                                                    4.1621646
  //            Monomer A HF           //
    Molecular point group: c1
  Multiplicity = 1
  Basis Set: AUG-CC-PVTZ
    Blend: AUG-CC-PVTZ
  Basis Set: (AUG-CC-PVTZ AUX)
    Blend: AUG-CC-PVTZ-JKFIT + DEF2-UNIVERSAL-JKFIT
  @DF-RHF Final Energy:  -467.05212677673421
    Total Energy =                       -467.0521267767342124
  //            Monomer B HF           //
    Molecular point group: c1

    Geometry (in Angstrom), charge = -1, multiplicity = 1:

       Center              X                  Y                   Z               Mass
    ------------   -----------------  -----------------  -----------------  -----------------
      Gh(LI)          0.000000000000     0.000000000000     0.000000000000     7.016003436600
      Gh(CL)          0.000000000000     2.029797000000     0.000000000000    34.968852682000
         CL           2.029797000000     0.000000000000     0.000000000000    34.968852682000

  Charge       = -1
  Multiplicity = 1
  Basis Set: AUG-CC-PVTZ
    Blend: AUG-CC-PVTZ
  Basis Set: (AUG-CC-PVTZ AUX)
    Blend: AUG-CC-PVTZ-JKFIT + DEF2-UNIVERSAL-JKFIT

    Orbital Energies [Eh]
    ---------------------

    Doubly Occupied:

       1A   -104.506689     2A    -10.229925     3A     -7.695988
       4A     -7.695978     5A     -7.695954     6A     -0.733494
       7A     -0.150329     8A     -0.150323     9A     -0.150322

  @DF-RHF Final Energy:  -459.57352540712498

   => Energetics <=

    Nuclear Repulsion Energy =              0.0000000000000000
    One-Electron Energy =                -641.1290466688315064
    Two-Electron Energy =                 181.5555212617065308
    Total Energy =                       -459.5735254071249756
 Dipole X            :        -69.0446341           65.2079271           -3.8367069
 Dipole Y            :          0.0001373            0.0000000            0.0001373
 Dipole Z            :          0.0000000            0.0000000            0.0000000
 Magnitude           :                                                    3.8367069

    SAPT Results
  --------------------------------------------------------------------------------------------------------
    Electrostatics                -93.46408010 [mEh]     -58.64959572 [kcal/mol]    -245.38990850 [kJ/mol]
      Elst10,r                    -90.47380249 [mEh]     -56.77316819 [kcal/mol]    -237.53893570 [kJ/mol]
      Elst12,r                     -2.99027762 [mEh]      -1.87642753 [kcal/mol]      -7.85097280 [kJ/mol]

    Exchange                      109.71926391 [mEh]      68.84987756 [kcal/mol]     288.06788771 [kJ/mol]
      Exch10                      103.92621206 [mEh]      65.21468264 [kcal/mol]     272.85823218 [kJ/mol]
      Exch10(S^2)                  99.56268891 [mEh]      62.47653052 [kcal/mol]     261.40180371 [kJ/mol]
      Exch11(S^2)                   1.56650068 [mEh]       0.98299402 [kcal/mol]       4.11284698 [kJ/mol]
      Exch12(S^2)                   4.22655116 [mEh]       2.65220090 [kcal/mol]      11.09680855 [kJ/mol]

    Induction                     -36.42858009 [mEh]     -22.85927912 [kcal/mol]     -95.64322384 [kJ/mol]
      Ind20,r                    -139.45583349 [mEh]     -87.50985669 [kcal/mol]    -366.14124037 [kJ/mol]
      Ind22                       -13.84648025 [mEh]      -8.68879753 [kcal/mol]     -36.35392888 [kJ/mol]
      Exch-Ind20,r                110.52725824 [mEh]      69.35690166 [kcal/mol]     290.18927653 [kJ/mol]
      Exch-Ind22                   10.97418057 [mEh]       6.88640227 [kcal/mol]      28.81270712 [kJ/mol]
      delta HF,r (2)               -4.62770516 [mEh]      -2.90392883 [kcal/mol]     -12.15003824 [kJ/mol]

    Dispersion                    -15.43059916 [mEh]      -9.68284716 [kcal/mol]     -40.51303253 [kJ/mol]
      Disp20                      -22.92040297 [mEh]     -14.38277001 [kcal/mol]     -60.17750971 [kJ/mol]
      Disp21                        3.07024776 [mEh]       1.92660956 [kcal/mol]       8.06093439 [kJ/mol]
      Disp22 (SDQ)                  0.32219951 [mEh]       0.20218324 [kcal/mol]       0.84593469 [kJ/mol]
      Disp22 (T)                   -3.39943867 [mEh]      -2.13317997 [kcal/mol]      -8.92522499 [kJ/mol]
      Est. Disp22 (T)              -3.74156198 [mEh]      -2.34786559 [kcal/mol]      -9.82346963 [kJ/mol]
      Exch-Disp20                   7.83891851 [mEh]       4.91899563 [kcal/mol]      20.58107773 [kJ/mol]

  Total HF                        -20.10387083 [mEh]     -12.61536941 [kcal/mol]     -52.78270559 [kJ/mol]
  Total SAPT0                     -35.18535529 [mEh]     -22.07914378 [kcal/mol]     -92.37913758 [kJ/mol]
  Total SAPT2                     -35.25488074 [mEh]     -22.12277166 [kcal/mol]     -92.56167662 [kJ/mol]
  Total SAPT2+                    -35.60399545 [mEh]     -22.34184445 [kcal/mol]     -93.47827717 [kJ/mol]

  Special recipe for scaled SAPT0 (see Manual):
    Electrostatics sSAPT0         -90.47380249 [mEh]     -56.77316819 [kcal/mol]    -237.53893570 [kJ/mol]
    Exchange sSAPT0               103.92621206 [mEh]      65.21468264 [kcal/mol]     272.85823218 [kJ/mol]
    Induction sSAPT0              -18.37787642 [mEh]     -11.53229156 [kcal/mol]     -48.25110788 [kJ/mol]
    Dispersion sSAPT0             -14.00498736 [mEh]      -8.78826225 [kcal/mol]     -36.77008926 [kJ/mol]
  Total sSAPT0                    -18.93045420 [mEh]     -11.87903935 [kcal/mol]     -49.70190066 [kJ/mol]
  --------------------------------------------------------------------------------------------------------

*** Psi4 exiting successfully. Buy a developer a beer!
