                               Psi4 1.9 release

  ==> Input File <==

--------------------------------------------------------------------------
MEMORY 60 GB

molecule dimer {
0 1
Li     0.000000     0.000000     0.000000
Cl     0.000000     2.029797     0.000000
--
-1 1
Cl     3.044695     0.000000     0.000000

units ang
no_reorient
no_com
symmetry c1
}

set {
basis        aug-cc-pVTZ
scf_type     df
}

energy("sapt2+")
--------------------------------------------------------------------------

  //              Dimer HF             //
    Molecular point group: c1
  Charge       = -1
  Multiplicity = 1
  Basis Set: AUG-CC-PVTZ
    Blend: AUG-CC-PVTZ
  Basis Set: (AUG-CC-PVTZ AUX)
    Blend: AUG-CC-PVTZ-JKFIT + DEF2-UNIVERSAL-JKFIT
  @DF-RHF Final Energy:  -926.64967066710994
    Total Energy =                       -926.6496706671099446
 Dipole X            :       -102.8686864           97.8118747           -5.0568117
 Dipole Y            :        -68.0920981           65.2079271           -2.8841709
 Dipole Z            :         -0.0000000            0.0000000           -0.0000000
 Magnitude           :                                                    5.8214935
  //            Monomer A HF           //
    Molecular point group: c1
  Multiplicity = 1
  Basis Set: AUG-CC-PVTZ
    Blend: AUG-CC-PVTZ
  Basis Set: (AUG-CC-PVTZ AUX)
    Blend: AUG-CC-PVTZ-JKFIT + DEF2-UNIVERSAL-JKFIT
  @DF-RHF Final Energy:  -467.05206946735046
    Total Energy =                       -467.0520694673504636
  //            Monomer B HF           //
    Molecular point group: c1

    Geometry (in Angstrom), charge = -1, multiplicity = 1:

       Center              X                  Y                   Z               Mass
    ------------   -----------------  -----------------  -----------------  -----------------
      Gh(LI)          0.000000000000     0.000000000000     0.000000000000     7.016003436600
      Gh(CL)          0.000000000000     2.029797000000     0.000000000000    34.968852682000
         CL           3.044695000000     0.000000000000     0.000000000000    34.968852682000

  Charge       = -1
  Multiplicity = 1
  Basis Set: AUG-CC-PVTZ
    Blend: AUG-CC-PVTZ
  Basis Set: (AUG-CC-PVTZ AUX)
    Blend: AUG-CC-PVTZ-JKFIT + DEF2-UNIVERSAL-JKFIT

    Orbital Energies [Eh]
    ---------------------

    Doubly Occupied:

       1A   -104.506316     2A    -10.229831     3A     -7.695882
       4A     -7.695878     5A     -7.695853     6A     -0.733503
       7A     -0.150340     8A     -0.150327     9A     -0.150326

  @DF-RHF Final Energy:  -459.57350364580344

   => Energetics <=

    Nuclear Repulsion Energy =              0.0000000000000000
    One-Electron Energy =                -641.1304936646297392
    Two-Electron Energy =                 181.5569900188262409
    Total Energy =                       -459.5735036458034983
 Dipole X            :       -103.5659433           97.8118747           -5.7540686
 Dipole Y            :          0.0001090            0.0000000            0.0001090
 Dipole Z            :         -0.0000000            0.0000000           -0.0000000
 Magnitude           :                                                    5.7540686

    SAPT Results
  --------------------------------------------------------------------------------------------------------
    Electrostatics                -23.49494738 [mEh]     -14.74330207 [kcal/mol]     -61.68597584 [kJ/mol]
      Elst10,r                    -23.13718057 [mEh]     -14.51880001 [kcal/mol]     -60.74665923 [kJ/mol]
      Elst12,r                     -0.35776680 [mEh]      -0.22450206 [kcal/mol]      -0.93931662 [kJ/mol]

    Exchange                       10.28043576 [mEh]       6.45107084 [kcal/mol]      26.99128038 [kJ/mol]
      Exch10                        8.92982956 [mEh]       5.60355265 [kcal/mol]      23.44526429 [kJ/mol]
      Exch10(S^2)                   8.87594056 [mEh]       5.56973679 [kcal/mol]      23.30377874 [kJ/mol]
      Exch11(S^2)                   0.46534999 [mEh]       0.29201152 [kcal/mol]       1.22177622 [kJ/mol]
      Exch12(S^2)                   0.88525622 [mEh]       0.55550666 [kcal/mol]       2.32423987 [kJ/mol]

    Induction                     -10.96334808 [mEh]      -6.87960478 [kcal/mol]     -28.78426642 [kJ/mol]
      Ind20,r                     -18.20716045 [mEh]     -11.42516567 [kcal/mol]     -47.80289317 [kJ/mol]
      Ind22                        -2.21549786 [mEh]      -1.39024590 [kcal/mol]      -5.81678883 [kJ/mol]
      Exch-Ind20,r                  9.38795732 [mEh]       5.89103216 [kcal/mol]      24.64807855 [kJ/mol]
      Exch-Ind22                    1.14235272 [mEh]       0.71683716 [kcal/mol]       2.99924666 [kJ/mol]
      delta HF,r (2)               -1.07099982 [mEh]      -0.67206253 [kcal/mol]      -2.81190964 [kJ/mol]

    Dispersion                     -4.34770929 [mEh]      -2.72822877 [kcal/mol]     -11.41490918 [kJ/mol]
      Disp20                       -5.31082127 [mEh]      -3.33259066 [kcal/mol]     -13.94355932 [kJ/mol]
      Disp21                        0.58300479 [mEh]       0.36584103 [kcal/mol]       1.53067888 [kJ/mol]
      Disp22 (SDQ)                  0.02896246 [mEh]       0.01817422 [kcal/mol]       0.07604093 [kJ/mol]
      Disp22 (T)                   -0.88317349 [mEh]      -0.55419973 [kcal/mol]      -2.31877168 [kJ/mol]
      Est. Disp22 (T)              -1.01755380 [mEh]      -0.63852465 [kcal/mol]      -2.67158712 [kJ/mol]
      Exch-Disp20                   1.36869852 [mEh]       0.85887129 [kcal/mol]       3.59351746 [kJ/mol]

  Total HF                        -24.09755396 [mEh]     -15.12144340 [kcal/mol]     -63.26811920 [kJ/mol]
  Total SAPT0                     -28.03967671 [mEh]     -17.59516278 [kcal/mol]     -73.61816106 [kJ/mol]
  Total SAPT2                     -28.11998245 [mEh]     -17.64555539 [kcal/mol]     -73.82900374 [kJ/mol]
  Total SAPT2+                    -28.52556899 [mEh]     -17.90006478 [kcal/mol]     -74.89387105 [kJ/mol]

  Special recipe for scaled SAPT0 (see Manual):
    Electrostatics sSAPT0         -23.13718057 [mEh]     -14.51880001 [kcal/mol]     -60.74665923 [kJ/mol]
    Exchange sSAPT0                 8.92982956 [mEh]       5.60355265 [kcal/mol]      23.44526429 [kJ/mol]
    Induction sSAPT0               -9.71816977 [mEh]      -6.09824360 [kcal/mol]     -25.51505123 [kJ/mol]
    Dispersion sSAPT0              -3.91704152 [mEh]      -2.45798066 [kcal/mol]     -10.28419109 [kJ/mol]
  Total sSAPT0                    -27.84256230 [mEh]     -17.47147162 [kcal/mol]     -73.10063726 [kJ/mol]
  --------------------------------------------------------------------------------------------------------

*** Psi4 exiting successfully. Buy a developer a beer!
