                               Psi4 1.9 release

  ==> Input File <==

--------------------------------------------------------------------------
MEMORY 60 GB

molecule dimer {
0 1
Br     0.000000     0.000000     0.000000
Li     0.000000     2.170734     0.000000
--
1 1
Li     4.341468     0.000000     0.000000

units ang
no_reorient
no_com
symmetry c1
}

set {
basis        aug-cc-pVTZ
scf_type     df
}

energy("sapt2+")
--------------------------------------------------------------------------

  //              Dimer HF             //
    Molecular point group: c1
  Charge       = 1
  Multiplicity = 1
  Basis Set: AUG-CC-PVTZ
    Blend: AUG-CC-PVTZ
  Basis Set: (AUG-CC-PVTZ AUX)
    Blend: AUG-CC-PVTZ-JKFIT + DEF2-UNIVERSAL-JKFIT
  @DF-RHF Final Energy: -2587.25209461449958
    Total Energy =                      -2587.2520946144991285
 Dipole X            :        -16.9559377           24.6125565            7.6566189
 Dipole Y            :         -9.3563441           12.3062783            2.9499341
 Dipole Z            :         -0.0000000            0.0000000           -0.0000000
 Magnitude           :                                                    8.2052376
  //            Monomer A HF           //
    Molecular point group: c1
  Multiplicity = 1
  Basis Set: AUG-CC-PVTZ
    Blend: AUG-CC-PVTZ
  Basis Set: (AUG-CC-PVTZ AUX)
    Blend: AUG-CC-PVTZ-JKFIT + DEF2-UNIVERSAL-JKFIT
  @DF-RHF Final Energy: -2579.99945807182894
    Total Energy =                      -2579.9994580718284851
  //            Monomer B HF           //
    Molecular point group: c1

    Geometry (in Angstrom), charge = 1, multiplicity = 1:

       Center              X                  Y                   Z               Mass
    ------------   -----------------  -----------------  -----------------  -----------------
      Gh(BR)          0.000000000000     0.000000000000     0.000000000000    78.918337600000
      Gh(LI)          0.000000000000     2.170734000000     0.000000000000     7.016003436600
         LI           4.341468000000     0.000000000000     0.000000000000     7.016003436600

  Charge       = 1
  Multiplicity = 1
  Basis Set: AUG-CC-PVTZ
    Blend: AUG-CC-PVTZ
  Basis Set: (AUG-CC-PVTZ AUX)
    Blend: AUG-CC-PVTZ-JKFIT + DEF2-UNIVERSAL-JKFIT

    Orbital Energies [Eh]
    ---------------------

    Doubly Occupied:

       1A     -2.792365

  @DF-RHF Final Energy:    -7.23638275486828

   => Energetics <=

    Nuclear Repulsion Energy =              0.0000000000000000
    One-Electron Energy =                  -8.8880359480572970
    Two-Electron Energy =                   1.6516531931890139
    Total Energy =                         -7.2363827548682833
 Dipole X            :        -16.4083988           24.6125565            8.2041577
 Dipole Y            :          0.0000042            0.0000000            0.0000042
 Dipole Z            :         -0.0000000            0.0000000           -0.0000000
 Magnitude           :                                                    8.2041577

    SAPT Results
  --------------------------------------------------------------------------------------------------------
    Electrostatics                -11.58716148 [mEh]      -7.27105360 [kcal/mol]     -30.42208827 [kJ/mol]
      Elst10,r                    -11.71713160 [mEh]      -7.35261109 [kcal/mol]     -30.76332479 [kJ/mol]
      Elst12,r                      0.12997012 [mEh]       0.08155748 [kcal/mol]       0.34123651 [kJ/mol]

    Exchange                        0.04858277 [mEh]       0.03048615 [kcal/mol]       0.12755405 [kJ/mol]
      Exch10                        0.04387488 [mEh]       0.02753191 [kcal/mol]       0.11519349 [kJ/mol]
      Exch10(S^2)                   0.04387439 [mEh]       0.02753160 [kcal/mol]       0.11519220 [kJ/mol]
      Exch11(S^2)                  -0.00015664 [mEh]      -0.00009829 [kcal/mol]      -0.00041126 [kJ/mol]
      Exch12(S^2)                   0.00486453 [mEh]       0.00305254 [kcal/mol]       0.01277182 [kJ/mol]

    Induction                      -4.83890597 [mEh]      -3.03645934 [kcal/mol]     -12.70454588 [kJ/mol]
      Ind20,r                      -4.03967947 [mEh]      -2.53493714 [kcal/mol]     -10.60617698 [kJ/mol]
      Ind22                        -0.26384479 [mEh]      -0.16556511 [kcal/mol]      -0.69272440 [kJ/mol]
      Exch-Ind20,r                  0.08374864 [mEh]       0.05255306 [kcal/mol]       0.21988201 [kJ/mol]
      Exch-Ind22                    0.00546990 [mEh]       0.00343241 [kcal/mol]       0.01436122 [kJ/mol]
      delta HF,r (2)               -0.62460025 [mEh]      -0.39194257 [kcal/mol]      -1.63988772 [kJ/mol]

    Dispersion                     -0.01289429 [mEh]      -0.00809129 [kcal/mol]      -0.03385396 [kJ/mol]
      Disp20                       -0.01238935 [mEh]      -0.00777443 [kcal/mol]      -0.03252824 [kJ/mol]
      Disp21                        0.00005717 [mEh]       0.00003588 [kcal/mol]       0.00015011 [kJ/mol]
      Disp22 (SDQ)                 -0.00013528 [mEh]      -0.00008489 [kcal/mol]      -0.00035517 [kJ/mol]
      Disp22 (T)                   -0.00080664 [mEh]      -0.00050617 [kcal/mol]      -0.00211783 [kJ/mol]
      Est. Disp22 (T)              -0.00094765 [mEh]      -0.00059466 [kcal/mol]      -0.00248805 [kJ/mol]
      Exch-Disp20                   0.00052081 [mEh]       0.00032681 [kcal/mol]       0.00136738 [kJ/mol]

  Total HF                        -16.25378780 [mEh]     -10.19940583 [kcal/mol]     -42.67431400 [kJ/mol]
  Total SAPT0                     -16.26565635 [mEh]     -10.20685345 [kcal/mol]     -42.70547485 [kJ/mol]
  Total SAPT2                     -16.38935322 [mEh]     -10.28447442 [kcal/mol]     -43.03024096 [kJ/mol]
  Total SAPT2+                    -16.39037898 [mEh]     -10.28511809 [kcal/mol]     -43.03293407 [kJ/mol]

  Special recipe for scaled SAPT0 (see Manual):
    Electrostatics sSAPT0         -11.71713160 [mEh]      -7.35261109 [kcal/mol]     -30.76332479 [kJ/mol]
    Exchange sSAPT0                 0.04387488 [mEh]       0.02753191 [kcal/mol]       0.11519349 [kJ/mol]
    Induction sSAPT0               -4.58052827 [mEh]      -2.87432488 [kcal/mol]     -12.02617531 [kJ/mol]
    Dispersion sSAPT0              -0.01186853 [mEh]      -0.00744761 [kcal/mol]      -0.03116081 [kJ/mol]
  Total sSAPT0                    -16.26565351 [mEh]     -10.20685168 [kcal/mol]     -42.70546741 [kJ/mol]
  --------------------------------------------------------------------------------------------------------

*** Psi4 exiting successfully. Buy a developer a beer!
