                               Psi4 1.9 release

  ==> Input File <==

--------------------------------------------------------------------------
MEMORY 60 GB

molecule dimer {
0 1
Br     0.000000     0.000000     0.000000
Li     0.000000     2.170734     0.000000
--
1 1
Li     2.821954     0.000000     0.000000

units ang
no_reorient
no_com
symmetry c1
}

set {
basis        aug-cc-pVTZ
scf_type     df
}

energy("sapt2+")
--------------------------------------------------------------------------

  //              Dimer HF             //
    Molecular point group: c1
  Charge       = 1
  Multiplicity = 1
  Basis Set: AUG-CC-PVTZ
    Blend: AUG-CC-PVTZ
  Basis Set: (AUG-CC-PVTZ AUX)
    Blend: AUG-CC-PVTZ-JKFIT + DEF2-UNIVERSAL-JKFIT
  @DF-RHF Final Energy: -2587.28559559499445
    Total Energy =                      -2587.2855955949944473
 Dipole X            :        -11.6779612           15.9981606            4.3201994
 Dipole Y            :         -9.3075886           12.3062783            2.9986897
 Dipole Z            :         -0.0000000            0.0000000           -0.0000000
 Magnitude           :                                                    5.2589222
  //            Monomer A HF           //
    Molecular point group: c1
  Multiplicity = 1
  Basis Set: AUG-CC-PVTZ
    Blend: AUG-CC-PVTZ
  Basis Set: (AUG-CC-PVTZ AUX)
    Blend: AUG-CC-PVTZ-JKFIT + DEF2-UNIVERSAL-JKFIT
  @DF-RHF Final Energy: -2579.99948395679166
    Total Energy =                      -2579.9994839567921190
  //            Monomer B HF           //
    Molecular point group: c1

    Geometry (in Angstrom), charge = 1, multiplicity = 1:

       Center              X                  Y                   Z               Mass
    ------------   -----------------  -----------------  -----------------  -----------------
      Gh(BR)          0.000000000000     0.000000000000     0.000000000000    78.918337600000
      Gh(LI)          0.000000000000     2.170734000000     0.000000000000     7.016003436600
         LI           2.821954000000     0.000000000000     0.000000000000     7.016003436600

  Charge       = 1
  Multiplicity = 1
  Basis Set: AUG-CC-PVTZ
    Blend: AUG-CC-PVTZ
  Basis Set: (AUG-CC-PVTZ AUX)
    Blend: AUG-CC-PVTZ-JKFIT + DEF2-UNIVERSAL-JKFIT

    Orbital Energies [Eh]
    ---------------------

    Doubly Occupied:

       1A     -2.792372

  @DF-RHF Final Energy:    -7.23638318099244

   => Energetics <=

    Nuclear Repulsion Energy =              0.0000000000000000
    One-Electron Energy =                  -8.8880227185135254
    Two-Electron Energy =                   1.6516395375210833
    Total Energy =                         -7.2363831809924424
 Dipole X            :        -10.6655216           15.9981606            5.3326390
 Dipole Y            :          0.0000160            0.0000000            0.0000160
 Dipole Z            :          0.0000000            0.0000000            0.0000000
 Magnitude           :                                                    5.3326390

    SAPT Results
  --------------------------------------------------------------------------------------------------------
    Electrostatics                -33.52953169 [mEh]     -21.04009878 [kcal/mol]     -88.03177331 [kJ/mol]
      Elst10,r                    -34.01715358 [mEh]     -21.34608614 [kcal/mol]     -89.31202442 [kJ/mol]
      Elst12,r                      0.48762190 [mEh]       0.30598736 [kcal/mol]       1.28025111 [kJ/mol]

    Exchange                        5.20919159 [mEh]       3.26881707 [kcal/mol]      13.67673064 [kJ/mol]
      Exch10                        5.00954147 [mEh]       3.14353473 [kcal/mol]      13.15254933 [kJ/mol]
      Exch10(S^2)                   5.00312761 [mEh]       3.13950997 [kcal/mol]      13.13570974 [kJ/mol]
      Exch11(S^2)                  -0.04077674 [mEh]      -0.02558779 [kcal/mol]      -0.10705931 [kJ/mol]
      Exch12(S^2)                   0.24042685 [mEh]       0.15087013 [kcal/mol]       0.63124062 [kJ/mol]

    Induction                     -21.86834153 [mEh]     -13.72259149 [kcal/mol]     -57.41532279 [kJ/mol]
      Ind20,r                     -26.14739231 [mEh]     -16.40773639 [kcal/mol]     -68.64996906 [kJ/mol]
      Ind22                        -1.54892986 [mEh]      -0.97196816 [kcal/mol]      -4.06671479 [kJ/mol]
      Exch-Ind20,r                  6.77657370 [mEh]       4.25236420 [kcal/mol]      17.79189179 [kJ/mol]
      Exch-Ind22                    0.40143343 [mEh]       0.25190328 [kcal/mol]       1.05396332 [kJ/mol]
      delta HF,r (2)               -1.35002649 [mEh]      -0.84715441 [kcal/mol]      -3.54449406 [kJ/mol]

    Dispersion                     -0.24314895 [mEh]      -0.15257827 [kcal/mol]      -0.63838748 [kJ/mol]
      Disp20                       -0.25889150 [mEh]      -0.16245687 [kcal/mol]      -0.67971954 [kJ/mol]
      Disp21                       -0.00952438 [mEh]      -0.00597664 [kcal/mol]      -0.02500626 [kJ/mol]
      Disp22 (SDQ)                 -0.00110578 [mEh]      -0.00069389 [kcal/mol]      -0.00290322 [kJ/mol]
      Disp22 (T)                   -0.01443454 [mEh]      -0.00905781 [kcal/mol]      -0.03789787 [kJ/mol]
      Est. Disp22 (T)              -0.01783987 [mEh]      -0.01119469 [kcal/mol]      -0.04683858 [kJ/mol]
      Exch-Disp20                   0.04421258 [mEh]       0.02774381 [kcal/mol]       0.11608011 [kJ/mol]

  Total HF                        -49.72845721 [mEh]     -31.20507802 [kcal/mol]    -130.56204642 [kJ/mol]
  Total SAPT0                     -49.94313613 [mEh]     -31.33979107 [kcal/mol]    -131.12568584 [kJ/mol]
  Total SAPT2                     -50.40336055 [mEh]     -31.62858625 [kcal/mol]    -132.33400488 [kJ/mol]
  Total SAPT2+                    -50.43183058 [mEh]     -31.64645147 [kcal/mol]    -132.40875294 [kJ/mol]

  Special recipe for scaled SAPT0 (see Manual):
    Electrostatics sSAPT0         -34.01715358 [mEh]     -21.34608614 [kcal/mol]     -89.31202442 [kJ/mol]
    Exchange sSAPT0                 5.00954147 [mEh]       3.14353473 [kcal/mol]      13.15254933 [kJ/mol]
    Induction sSAPT0              -20.69474957 [mEh]     -12.98615142 [kcal/mol]     -54.33405752 [kJ/mol]
    Dispersion sSAPT0              -0.21450866 [mEh]      -0.13460622 [kcal/mol]      -0.56319242 [kJ/mol]
  Total sSAPT0                    -49.91687034 [mEh]     -31.32330904 [kcal/mol]    -131.05672503 [kJ/mol]
  --------------------------------------------------------------------------------------------------------

*** Psi4 exiting successfully. Buy a developer a beer!
