                               Psi4 1.9 release

  ==> Input File <==

--------------------------------------------------------------------------
MEMORY 60 GB

molecule dimer {
0 1
Br     0.000000     0.000000     0.000000
Li     0.000000     2.170734     0.000000
--
1 1
Li     2.170734     0.000000     0.000000

units ang
no_reorient
no_com
symmetry c1
}

set {
basis        aug-cc-pVTZ
scf_type     df
}

energy("sapt2+")
--------------------------------------------------------------------------

  //              Dimer HF             //
    Molecular point group: c1
  Charge       = 1
  Multiplicity = 1
  Basis Set: AUG-CC-PVTZ
    Blend: AUG-CC-PVTZ
  Basis Set: (AUG-CC-PVTZ AUX)
    Blend: AUG-CC-PVTZ-JKFIT + DEF2-UNIVERSAL-JKFIT
  @DF-RHF Final Energy: -2587.29195648600307
    Total Energy =                      -2587.2919564860030732
 Dipole X            :         -9.2651093           12.3062783            3.0411690
 Dipole Y            :         -9.2651093           12.3062783            3.0411690
 Dipole Z            :         -0.0000000            0.0000000           -0.0000000
 Magnitude           :                                                    4.3008624
  //            Monomer A HF           //
    Molecular point group: c1
  Multiplicity = 1
  Basis Set: AUG-CC-PVTZ
    Blend: AUG-CC-PVTZ
  Basis Set: (AUG-CC-PVTZ AUX)
    Blend: AUG-CC-PVTZ-JKFIT + DEF2-UNIVERSAL-JKFIT
  @DF-RHF Final Energy: -2579.99950642894055
    Total Energy =                      -2579.9995064289405491
  //            Monomer B HF           //
    Molecular point group: c1

    Geometry (in Angstrom), charge = 1, multiplicity = 1:

       Center              X                  Y                   Z               Mass
    ------------   -----------------  -----------------  -----------------  -----------------
      Gh(BR)          0.000000000000     0.000000000000     0.000000000000    78.918337600000
      Gh(LI)          0.000000000000     2.170734000000     0.000000000000     7.016003436600
         LI           2.170734000000     0.000000000000     0.000000000000     7.016003436600

  Charge       = 1
  Multiplicity = 1
  Basis Set: AUG-CC-PVTZ
    Blend: AUG-CC-PVTZ
  Basis Set: (AUG-CC-PVTZ AUX)
    Blend: AUG-CC-PVTZ-JKFIT + DEF2-UNIVERSAL-JKFIT

    Orbital Energies [Eh]
    ---------------------

    Doubly Occupied:

       1A     -2.792371

  @DF-RHF Final Energy:    -7.23638331445809

   => Energetics <=

    Nuclear Repulsion Energy =              0.0000000000000000
    One-Electron Energy =                  -8.8880239323423726
    Two-Electron Energy =                   1.6516406178842800
    Total Energy =                         -7.2363833144580925
 Dipole X            :         -8.2042133           12.3062783            4.1020650
 Dipole Y            :          0.0000232            0.0000000            0.0000232
 Dipole Z            :          0.0000000            0.0000000            0.0000000
 Magnitude           :                                                    4.1020650

    SAPT Results
  --------------------------------------------------------------------------------------------------------
    Electrostatics                -55.57292682 [mEh]     -34.87253807 [kcal/mol]    -145.90669927 [kJ/mol]
      Elst10,r                    -56.79437353 [mEh]     -35.63900744 [kcal/mol]    -149.11360715 [kJ/mol]
      Elst12,r                      1.22144670 [mEh]       0.76646938 [kcal/mol]       3.20690788 [kJ/mol]

    Exchange                       39.03190214 [mEh]      24.49288837 [kcal/mol]     102.47824495 [kJ/mol]
      Exch10                       38.81001683 [mEh]      24.35365324 [kcal/mol]     101.89568516 [kJ/mol]
      Exch10(S^2)                  38.43150265 [mEh]      24.11613200 [kcal/mol]     100.90189630 [kJ/mol]
      Exch11(S^2)                  -0.54371690 [mEh]      -0.34118750 [kcal/mol]      -1.42752852 [kJ/mol]
      Exch12(S^2)                   0.76560221 [mEh]       0.48042264 [kcal/mol]       2.01008831 [kJ/mol]

    Induction                     -39.77212409 [mEh]     -24.95738466 [kcal/mol]    -104.42169742 [kJ/mol]
      Ind20,r                     -73.94401510 [mEh]     -46.40057000 [kcal/mol]    -194.13998489 [kJ/mol]
      Ind22                        -3.56957596 [mEh]      -2.23994273 [kcal/mol]      -9.37192039 [kJ/mol]
      Exch-Ind20,r                 38.94097077 [mEh]      24.43582808 [kcal/mol]     102.23950468 [kJ/mol]
      Exch-Ind22                    1.87983778 [mEh]       1.17961602 [kcal/mol]       4.93551341 [kJ/mol]
      delta HF,r (2)               -3.07934159 [mEh]      -1.93231602 [kcal/mol]      -8.08481022 [kJ/mol]

    Dispersion                     -1.20703513 [mEh]      -0.75742598 [kcal/mol]      -3.16907031 [kJ/mol]
      Disp20                       -1.32124241 [mEh]      -0.82909213 [kcal/mol]      -3.46892147 [kJ/mol]
      Disp21                       -0.04269019 [mEh]      -0.02678850 [kcal/mol]      -0.11208307 [kJ/mol]
      Disp22 (SDQ)                  0.00653337 [mEh]       0.00409975 [kcal/mol]       0.01715335 [kJ/mol]
      Disp22 (T)                   -0.06578851 [mEh]      -0.04128292 [kcal/mol]      -0.17272772 [kJ/mol]
      Est. Disp22 (T)              -0.07839363 [mEh]      -0.04919274 [kcal/mol]      -0.20582244 [kJ/mol]
      Exch-Disp20                   0.22875772 [mEh]       0.14354764 [kcal/mol]       0.60060331 [kJ/mol]

  Total HF                        -56.06674260 [mEh]     -35.18241215 [kcal/mol]    -147.20321243 [kJ/mol]
  Total SAPT0                     -57.15922729 [mEh]     -35.86795664 [kcal/mol]    -150.07153059 [kJ/mol]
  Total SAPT2                     -57.40563346 [mEh]     -36.02257885 [kcal/mol]    -150.71846989 [kJ/mol]
  Total SAPT2+                    -57.52018391 [mEh]     -36.09446034 [kcal/mol]    -151.01922204 [kJ/mol]

  Special recipe for scaled SAPT0 (see Manual):
    Electrostatics sSAPT0         -56.79437353 [mEh]     -35.63900744 [kcal/mol]    -149.11360715 [kJ/mol]
    Exchange sSAPT0                38.81001683 [mEh]      24.35365324 [kcal/mol]     101.89568516 [kJ/mol]
    Induction sSAPT0              -36.92042052 [mEh]     -23.16791365 [kcal/mol]     -96.93455072 [kJ/mol]
    Dispersion sSAPT0              -1.08565875 [mEh]      -0.68126115 [kcal/mol]      -2.85039667 [kJ/mol]
  Total sSAPT0                    -55.99043597 [mEh]     -35.13452901 [kcal/mol]    -147.00286938 [kJ/mol]
  --------------------------------------------------------------------------------------------------------

*** Psi4 exiting successfully. Buy a developer a beer!
