                               Psi4 1.9 release

  ==> Input File <==

--------------------------------------------------------------------------
MEMORY 60 GB

molecule dimer {
0 1
Br     0.000000     0.000000     0.000000
Li     0.000000     2.170734     0.000000
--
1 1
Li     3.039028     0.000000     0.000000

units ang
no_reorient
no_com
symmetry c1
}

set {
basis        aug-cc-pVTZ
scf_type     df
}

energy("sapt2+")
--------------------------------------------------------------------------

  //              Dimer HF             //
    Molecular point group: c1
  Charge       = 1
  Multiplicity = 1
  Basis Set: AUG-CC-PVTZ
    Blend: AUG-CC-PVTZ
  Basis Set: (AUG-CC-PVTZ AUX)
    Blend: AUG-CC-PVTZ-JKFIT + DEF2-UNIVERSAL-JKFIT
  @DF-RHF Final Energy: -2587.27899472815625
    Total Energy =                      -2587.2789947281562490
 Dipole X            :        -12.4451403           17.2287918            4.7836515
 Dipole Y            :         -9.3187600           12.3062783            2.9875182
 Dipole Z            :          0.0000000            0.0000000            0.0000000
 Magnitude           :                                                    5.6399102
  //            Monomer A HF           //
    Molecular point group: c1
  Multiplicity = 1
  Basis Set: AUG-CC-PVTZ
    Blend: AUG-CC-PVTZ
  Basis Set: (AUG-CC-PVTZ AUX)
    Blend: AUG-CC-PVTZ-JKFIT + DEF2-UNIVERSAL-JKFIT
  @DF-RHF Final Energy: -2579.99947791454952
    Total Energy =                      -2579.9994779145490611
  //            Monomer B HF           //
    Molecular point group: c1

    Geometry (in Angstrom), charge = 1, multiplicity = 1:

       Center              X                  Y                   Z               Mass
    ------------   -----------------  -----------------  -----------------  -----------------
      Gh(BR)          0.000000000000     0.000000000000     0.000000000000    78.918337600000
      Gh(LI)          0.000000000000     2.170734000000     0.000000000000     7.016003436600
         LI           3.039028000000     0.000000000000     0.000000000000     7.016003436600

  Charge       = 1
  Multiplicity = 1
  Basis Set: AUG-CC-PVTZ
    Blend: AUG-CC-PVTZ
  Basis Set: (AUG-CC-PVTZ AUX)
    Blend: AUG-CC-PVTZ-JKFIT + DEF2-UNIVERSAL-JKFIT

    Orbital Energies [Eh]
    ---------------------

    Doubly Occupied:

       1A     -2.792372

  @DF-RHF Final Energy:    -7.23638312331466

   => Energetics <=

    Nuclear Repulsion Energy =              0.0000000000000000
    One-Electron Energy =                  -8.8880230535187188
    Two-Electron Energy =                   1.6516399302040550
    Total Energy =                         -7.2363831233146634
 Dipole X            :        -11.4859340           17.2287918            5.7428579
 Dipole Y            :          0.0000192            0.0000000            0.0000192
 Dipole Z            :          0.0000000            0.0000000            0.0000000
 Magnitude           :                                                    5.7428579

    SAPT Results
  --------------------------------------------------------------------------------------------------------
    Electrostatics                -28.34553754 [mEh]     -17.78709335 [kcal/mol]     -74.42119857 [kJ/mol]
      Elst10,r                    -28.72595644 [mEh]     -18.02580981 [kcal/mol]     -75.41998825 [kJ/mol]
      Elst12,r                      0.38041890 [mEh]       0.23871646 [kcal/mol]       0.99878968 [kJ/mol]

    Exchange                        2.67093341 [mEh]       1.67603602 [kcal/mol]       7.01253470 [kJ/mol]
      Exch10                        2.54223334 [mEh]       1.59527551 [kcal/mol]       6.67463272 [kJ/mol]
      Exch10(S^2)                   2.54057984 [mEh]       1.59423792 [kcal/mol]       6.67029145 [kJ/mol]
      Exch11(S^2)                  -0.01742726 [mEh]      -0.01093577 [kcal/mol]      -0.04575527 [kJ/mol]
      Exch12(S^2)                   0.14612733 [mEh]       0.09169628 [kcal/mol]       0.38365725 [kJ/mol]

    Induction                     -17.89438879 [mEh]     -11.22889849 [kcal/mol]     -46.98171130 [kJ/mol]
      Ind20,r                     -19.09338114 [mEh]     -11.98127755 [kcal/mol]     -50.12966528 [kJ/mol]
      Ind22                        -1.17057064 [mEh]      -0.73454417 [kcal/mol]      -3.07333280 [kJ/mol]
      Exch-Ind20,r                  3.68875639 [mEh]       2.31472958 [kcal/mol]       9.68482856 [kJ/mol]
      Exch-Ind22                    0.22614905 [mEh]       0.14191067 [kcal/mol]       0.59375424 [kJ/mol]
      delta HF,r (2)               -1.54534244 [mEh]      -0.96971702 [kcal/mol]      -4.05729602 [kJ/mol]

    Dispersion                     -0.14945289 [mEh]      -0.09378310 [kcal/mol]      -0.39238851 [kJ/mol]
      Disp20                       -0.15609538 [mEh]      -0.09795133 [kcal/mol]      -0.40982836 [kJ/mol]
      Disp21                       -0.00542904 [mEh]      -0.00340677 [kcal/mol]      -0.01425394 [kJ/mol]
      Disp22 (SDQ)                 -0.00107045 [mEh]      -0.00067172 [kcal/mol]      -0.00281047 [kJ/mol]
      Disp22 (T)                   -0.00884954 [mEh]      -0.00555317 [kcal/mol]      -0.02323447 [kJ/mol]
      Est. Disp22 (T)              -0.01108848 [mEh]      -0.00695812 [kcal/mol]      -0.02911279 [kJ/mol]
      Exch-Disp20                   0.02423046 [mEh]       0.01520484 [kcal/mol]       0.06361705 [kJ/mol]

  Total HF                        -43.13369029 [mEh]     -27.06679930 [kcal/mol]    -113.24748826 [kJ/mol]
  Total SAPT0                     -43.26555522 [mEh]     -27.14954579 [kcal/mol]    -113.59369957 [kJ/mol]
  Total SAPT2                     -43.70085785 [mEh]     -27.42270231 [kcal/mol]    -114.73658647 [kJ/mol]
  Total SAPT2+                    -43.71844581 [mEh]     -27.43373893 [kcal/mol]    -114.78276367 [kJ/mol]

  Special recipe for scaled SAPT0 (see Manual):
    Electrostatics sSAPT0         -28.72595644 [mEh]     -18.02580981 [kcal/mol]     -75.41998825 [kJ/mol]
    Exchange sSAPT0                 2.54223334 [mEh]       1.59527551 [kcal/mol]       6.67463272 [kJ/mol]
    Induction sSAPT0              -16.94276016 [mEh]     -10.63174251 [kcal/mol]     -44.48321067 [kJ/mol]
    Dispersion sSAPT0              -0.13181758 [mEh]      -0.08271678 [kcal/mol]      -0.34608701 [kJ/mol]
  Total sSAPT0                    -43.25830084 [mEh]     -27.14499360 [kcal/mol]    -113.57465321 [kJ/mol]
  --------------------------------------------------------------------------------------------------------

*** Psi4 exiting successfully. Buy a developer a beer!
