                               Psi4 1.9 release

  ==> Input File <==

--------------------------------------------------------------------------
MEMORY 60 GB

molecule dimer {
0 1
Br     0.000000     0.000000     0.000000
Li     0.000000     2.170734     0.000000
--
1 1
Li     2.387807     0.000000     0.000000

units ang
no_reorient
no_com
symmetry c1
}

set {
basis        aug-cc-pVTZ
scf_type     df
}

energy("sapt2+")
--------------------------------------------------------------------------

  //              Dimer HF             //
    Molecular point group: c1
  Charge       = 1
  Multiplicity = 1
  Basis Set: AUG-CC-PVTZ
    Blend: AUG-CC-PVTZ
  Basis Set: (AUG-CC-PVTZ AUX)
    Blend: AUG-CC-PVTZ-JKFIT + DEF2-UNIVERSAL-JKFIT
  @DF-RHF Final Energy: -2587.29508810616426
    Total Energy =                      -2587.2950881061642576
 Dipole X            :        -10.0917499           13.5369038            3.4451539
 Dipole Y            :         -9.2805332           12.3062783            3.0257451
 Dipole Z            :         -0.0000000            0.0000000           -0.0000000
 Magnitude           :                                                    4.5852174
  //            Monomer A HF           //
    Molecular point group: c1
  Multiplicity = 1
  Basis Set: AUG-CC-PVTZ
    Blend: AUG-CC-PVTZ
  Basis Set: (AUG-CC-PVTZ AUX)
    Blend: AUG-CC-PVTZ-JKFIT + DEF2-UNIVERSAL-JKFIT
  @DF-RHF Final Energy: -2579.99949797786576
    Total Energy =                      -2579.9994979778657580
  //            Monomer B HF           //
    Molecular point group: c1

    Geometry (in Angstrom), charge = 1, multiplicity = 1:

       Center              X                  Y                   Z               Mass
    ------------   -----------------  -----------------  -----------------  -----------------
      Gh(BR)          0.000000000000     0.000000000000     0.000000000000    78.918337600000
      Gh(LI)          0.000000000000     2.170734000000     0.000000000000     7.016003436600
         LI           2.387807000000     0.000000000000     0.000000000000     7.016003436600

  Charge       = 1
  Multiplicity = 1
  Basis Set: AUG-CC-PVTZ
    Blend: AUG-CC-PVTZ
  Basis Set: (AUG-CC-PVTZ AUX)
    Blend: AUG-CC-PVTZ-JKFIT + DEF2-UNIVERSAL-JKFIT

    Orbital Energies [Eh]
    ---------------------

    Doubly Occupied:

       1A     -2.792372

  @DF-RHF Final Energy:    -7.23638322898719

   => Energetics <=

    Nuclear Repulsion Energy =              0.0000000000000000
    One-Electron Energy =                  -8.8880216510266177
    Two-Electron Energy =                   1.6516384220394287
    Total Energy =                         -7.2363832289871892
 Dipole X            :         -9.0246628           13.5369038            4.5122410
 Dipole Y            :          0.0000178            0.0000000            0.0000178
 Dipole Z            :          0.0000000            0.0000000            0.0000000
 Magnitude           :                                                    4.5122410

    SAPT Results
  --------------------------------------------------------------------------------------------------------
    Electrostatics                -47.17591488 [mEh]     -29.60333352 [kcal/mol]    -123.86034745 [kJ/mol]
      Elst10,r                    -48.05341418 [mEh]     -30.15397265 [kcal/mol]    -126.16422155 [kJ/mol]
      Elst12,r                      0.87749930 [mEh]       0.55063912 [kcal/mol]       2.30387410 [kJ/mol]

    Exchange                       19.91295820 [mEh]      12.49556992 [kcal/mol]      52.28146454 [kJ/mol]
      Exch10                       19.57485368 [mEh]      12.28340613 [kcal/mol]      51.39377127 [kJ/mol]
      Exch10(S^2)                  19.47767303 [mEh]      12.22242435 [kcal/mol]      51.13862350 [kJ/mol]
      Exch11(S^2)                  -0.22834396 [mEh]      -0.14328800 [kcal/mol]      -0.59951699 [kJ/mol]
      Exch12(S^2)                   0.56644847 [mEh]       0.35545178 [kcal/mol]       1.48721026 [kJ/mol]

    Induction                     -32.27905066 [mEh]     -20.25541009 [kcal/mol]     -84.74863583 [kJ/mol]
      Ind20,r                     -51.47709469 [mEh]     -32.30236460 [kcal/mol]    -135.15309349 [kJ/mol]
      Ind22                        -2.71739701 [mEh]      -1.70519237 [kcal/mol]      -7.13452488 [kJ/mol]
      Exch-Ind20,r                 22.10113670 [mEh]      13.86867266 [kcal/mol]      58.02652641 [kJ/mol]
      Exch-Ind22                    1.16668517 [mEh]       0.73210600 [kcal/mol]       3.06313149 [kJ/mol]
      delta HF,r (2)               -1.35238082 [mEh]      -0.84863178 [kcal/mol]      -3.55067536 [kJ/mol]

    Dispersion                     -0.69269046 [mEh]      -0.43466983 [kcal/mol]      -1.81865856 [kJ/mol]
      Disp20                       -0.75694024 [mEh]      -0.47498717 [kcal/mol]      -1.98734634 [kJ/mol]
      Disp21                       -0.02671222 [mEh]      -0.01676217 [kcal/mol]      -0.07013291 [kJ/mol]
      Disp22 (SDQ)                  0.00140126 [mEh]       0.00087931 [kcal/mol]       0.00367901 [kJ/mol]
      Disp22 (T)                   -0.03934085 [mEh]      -0.02468675 [kcal/mol]      -0.10328938 [kJ/mol]
      Est. Disp22 (T)              -0.04764189 [mEh]      -0.02989574 [kcal/mol]      -0.12508376 [kJ/mol]
      Exch-Disp20                   0.13720262 [mEh]       0.08609595 [kcal/mol]       0.36022544 [kJ/mol]

  Total HF                        -59.20689931 [mEh]     -37.15289023 [kcal/mol]    -155.44769273 [kJ/mol]
  Total SAPT0                     -59.82663693 [mEh]     -37.54178146 [kcal/mol]    -157.07481362 [kJ/mol]
  Total SAPT2                     -60.16174496 [mEh]     -37.75206492 [kcal/mol]    -157.95463964 [kJ/mol]
  Total SAPT2+                    -60.23469781 [mEh]     -37.79784352 [kcal/mol]    -158.14617730 [kJ/mol]

  Special recipe for scaled SAPT0 (see Manual):
    Electrostatics sSAPT0         -48.05341418 [mEh]     -30.15397265 [kcal/mol]    -126.16422155 [kJ/mol]
    Exchange sSAPT0                19.57485368 [mEh]      12.28340613 [kcal/mol]      51.39377127 [kJ/mol]
    Induction sSAPT0              -30.39587557 [mEh]     -19.07369988 [kcal/mol]     -79.80436031 [kJ/mol]
    Dispersion sSAPT0              -0.61767371 [mEh]      -0.38759610 [kcal/mol]      -1.62170209 [kJ/mol]
  Total sSAPT0                    -59.49210977 [mEh]     -37.33186250 [kcal/mol]    -156.19651268 [kJ/mol]
  --------------------------------------------------------------------------------------------------------

*** Psi4 exiting successfully. Buy a developer a beer!
