                               Psi4 1.9 release

  ==> Input File <==

--------------------------------------------------------------------------
MEMORY 60 GB

molecule dimer {
0 1
Br     0.000000     0.000000     0.000000
Li     0.000000     2.170734     0.000000
--
1 1
Li     3.256101     0.000000     0.000000

units ang
no_reorient
no_com
symmetry c1
}

set {
basis        aug-cc-pVTZ
scf_type     df
}

energy("sapt2+")
--------------------------------------------------------------------------

  //              Dimer HF             //
    Molecular point group: c1
  Charge       = 1
  Multiplicity = 1
  Basis Set: AUG-CC-PVTZ
    Blend: AUG-CC-PVTZ
  Basis Set: (AUG-CC-PVTZ AUX)
    Blend: AUG-CC-PVTZ-JKFIT + DEF2-UNIVERSAL-JKFIT
  @DF-RHF Final Energy: -2587.27270808743378
    Total Energy =                      -2587.2727080874337844
 Dipole X            :        -13.2011204           18.4594174            5.2582969
 Dipole Y            :         -9.3282949           12.3062783            2.9779834
 Dipole Z            :         -0.0000000            0.0000000           -0.0000000
 Magnitude           :                                                    6.0430184
  //            Monomer A HF           //
    Molecular point group: c1
  Multiplicity = 1
  Basis Set: AUG-CC-PVTZ
    Blend: AUG-CC-PVTZ
  Basis Set: (AUG-CC-PVTZ AUX)
    Blend: AUG-CC-PVTZ-JKFIT + DEF2-UNIVERSAL-JKFIT
  @DF-RHF Final Energy: -2579.99947264857383
    Total Energy =                      -2579.9994726485738283
  //            Monomer B HF           //
    Molecular point group: c1

    Geometry (in Angstrom), charge = 1, multiplicity = 1:

       Center              X                  Y                   Z               Mass
    ------------   -----------------  -----------------  -----------------  -----------------
      Gh(BR)          0.000000000000     0.000000000000     0.000000000000    78.918337600000
      Gh(LI)          0.000000000000     2.170734000000     0.000000000000     7.016003436600
         LI           3.256101000000     0.000000000000     0.000000000000     7.016003436600

  Charge       = 1
  Multiplicity = 1
  Basis Set: AUG-CC-PVTZ
    Blend: AUG-CC-PVTZ
  Basis Set: (AUG-CC-PVTZ AUX)
    Blend: AUG-CC-PVTZ-JKFIT + DEF2-UNIVERSAL-JKFIT

    Orbital Energies [Eh]
    ---------------------

    Doubly Occupied:

       1A     -2.792372

  @DF-RHF Final Energy:    -7.23638306541697

   => Energetics <=

    Nuclear Repulsion Energy =              0.0000000000000000
    One-Electron Energy =                  -8.8880230573959249
    Two-Electron Energy =                   1.6516399919789533
    Total Energy =                         -7.2363830654169714
 Dipole X            :        -12.3063425           18.4594174            6.1530749
 Dipole Y            :          0.0000218            0.0000000            0.0000218
 Dipole Z            :         -0.0000000            0.0000000           -0.0000000
 Magnitude           :                                                    6.1530749

    SAPT Results
  --------------------------------------------------------------------------------------------------------
    Electrostatics                -24.07548410 [mEh]     -15.10759436 [kcal/mol]     -63.21017481 [kJ/mol]
      Elst10,r                    -24.38066001 [mEh]     -15.29909513 [kcal/mol]     -64.01141403 [kJ/mol]
      Elst12,r                      0.30517590 [mEh]       0.19150077 [kcal/mol]       0.80123922 [kJ/mol]

    Exchange                        1.37116653 [mEh]       0.86041999 [kcal/mol]       3.59999724 [kJ/mol]
      Exch10                        1.29232684 [mEh]       0.81094733 [kcal/mol]       3.39300365 [kJ/mol]
      Exch10(S^2)                   1.29189954 [mEh]       0.81067920 [kcal/mol]       3.39188177 [kJ/mol]
      Exch11(S^2)                  -0.00752574 [mEh]      -0.00472247 [kcal/mol]      -0.01975883 [kJ/mol]
      Exch12(S^2)                   0.08636544 [mEh]       0.05419513 [kcal/mol]       0.22675242 [kJ/mol]

    Induction                     -14.52872719 [mEh]      -9.11691396 [kcal/mol]     -38.14516800 [kJ/mol]
      Ind20,r                     -14.17492141 [mEh]      -8.89489748 [kcal/mol]     -37.21625104 [kJ/mol]
      Ind22                        -0.88969043 [mEh]      -0.55828917 [kcal/mol]      -2.33588190 [kJ/mol]
      Exch-Ind20,r                  1.99160840 [mEh]       1.24975314 [kcal/mol]       5.22896714 [kJ/mol]
      Exch-Ind22                    0.12500351 [mEh]       0.07844089 [kcal/mol]       0.32819667 [kJ/mol]
      delta HF,r (2)               -1.58072726 [mEh]      -0.99192133 [kcal/mol]      -4.15019886 [kJ/mol]

    Dispersion                     -0.09450180 [mEh]      -0.05930077 [kcal/mol]      -0.24811444 [kJ/mol]
      Disp20                       -0.09672538 [mEh]      -0.06069609 [kcal/mol]      -0.25395245 [kJ/mol]
      Disp21                       -0.00298252 [mEh]      -0.00187156 [kcal/mol]      -0.00783062 [kJ/mol]
      Disp22 (SDQ)                 -0.00085765 [mEh]      -0.00053818 [kcal/mol]      -0.00225176 [kJ/mol]
      Disp22 (T)                   -0.00561484 [mEh]      -0.00352336 [kcal/mol]      -0.01474176 [kJ/mol]
      Est. Disp22 (T)              -0.00703095 [mEh]      -0.00441199 [kcal/mol]      -0.01845975 [kJ/mol]
      Exch-Disp20                   0.01309471 [mEh]       0.00821705 [kcal/mol]       0.03438014 [kJ/mol]

  Total HF                        -36.85237344 [mEh]     -23.12521347 [kcal/mol]     -96.75589314 [kJ/mol]
  Total SAPT0                     -36.93600412 [mEh]     -23.17769251 [kcal/mol]     -96.97546545 [kJ/mol]
  Total SAPT2                     -37.31667544 [mEh]     -23.41656737 [kcal/mol]     -97.97491787 [kJ/mol]
  Total SAPT2+                    -37.32754656 [mEh]     -23.42338910 [kcal/mol]     -98.00346000 [kJ/mol]

  Special recipe for scaled SAPT0 (see Manual):
    Electrostatics sSAPT0         -24.38066001 [mEh]     -15.29909513 [kcal/mol]     -64.01141403 [kJ/mol]
    Exchange sSAPT0                 1.29232684 [mEh]       0.81094733 [kcal/mol]       3.39300365 [kJ/mol]
    Induction sSAPT0              -13.76206343 [mEh]      -8.63582518 [kcal/mol]     -36.13229256 [kJ/mol]
    Dispersion sSAPT0              -0.08361768 [mEh]      -0.05247089 [kcal/mol]      -0.21953818 [kJ/mol]
  Total sSAPT0                    -36.93401428 [mEh]     -23.17644386 [kcal/mol]     -96.97024113 [kJ/mol]
  --------------------------------------------------------------------------------------------------------

*** Psi4 exiting successfully. Buy a developer a beer!
