                               Psi4 1.9 release

  ==> Input File <==

--------------------------------------------------------------------------
MEMORY 60 GB

molecule dimer {
0 1
Br     0.000000     0.000000     0.000000
Li     0.000000     2.170734     0.000000
--
1 1
Li     2.604881     0.000000     0.000000

units ang
no_reorient
no_com
symmetry c1
}

set {
basis        aug-cc-pVTZ
scf_type     df
}

energy("sapt2+")
--------------------------------------------------------------------------

  //              Dimer HF             //
    Molecular point group: c1
  Charge       = 1
  Multiplicity = 1
  Basis Set: AUG-CC-PVTZ
    Blend: AUG-CC-PVTZ
  Basis Set: (AUG-CC-PVTZ AUX)
    Blend: AUG-CC-PVTZ-JKFIT + DEF2-UNIVERSAL-JKFIT
  @DF-RHF Final Energy: -2587.29161130348302
    Total Energy =                      -2587.2916113034834780
 Dipole X            :        -10.8949139           14.7675350            3.8726212
 Dipole Y            :         -9.2947928           12.3062783            3.0114854
 Dipole Z            :         -0.0000000            0.0000000           -0.0000000
 Magnitude           :                                                    4.9057353
  //            Monomer A HF           //
    Molecular point group: c1
  Multiplicity = 1
  Basis Set: AUG-CC-PVTZ
    Blend: AUG-CC-PVTZ
  Basis Set: (AUG-CC-PVTZ AUX)
    Blend: AUG-CC-PVTZ-JKFIT + DEF2-UNIVERSAL-JKFIT
  @DF-RHF Final Energy: -2579.99949062083624
    Total Energy =                      -2579.9994906208357861
  //            Monomer B HF           //
    Molecular point group: c1

    Geometry (in Angstrom), charge = 1, multiplicity = 1:

       Center              X                  Y                   Z               Mass
    ------------   -----------------  -----------------  -----------------  -----------------
      Gh(BR)          0.000000000000     0.000000000000     0.000000000000    78.918337600000
      Gh(LI)          0.000000000000     2.170734000000     0.000000000000     7.016003436600
         LI           2.604881000000     0.000000000000     0.000000000000     7.016003436600

  Charge       = 1
  Multiplicity = 1
  Basis Set: AUG-CC-PVTZ
    Blend: AUG-CC-PVTZ
  Basis Set: (AUG-CC-PVTZ AUX)
    Blend: AUG-CC-PVTZ-JKFIT + DEF2-UNIVERSAL-JKFIT

    Orbital Energies [Eh]
    ---------------------

    Doubly Occupied:

       1A     -2.792372

  @DF-RHF Final Energy:    -7.23638321557780

   => Energetics <=

    Nuclear Repulsion Energy =              0.0000000000000000
    One-Electron Energy =                  -8.8880219174349762
    Two-Electron Energy =                   1.6516387018571717
    Total Energy =                         -7.2363832155778045
 Dipole X            :         -9.8451027           14.7675350            4.9224324
 Dipole Y            :          0.0000150            0.0000000            0.0000150
 Dipole Z            :         -0.0000000            0.0000000           -0.0000000
 Magnitude           :                                                    4.9224324

    SAPT Results
  --------------------------------------------------------------------------------------------------------
    Electrostatics                -39.77940362 [mEh]     -24.96195263 [kcal/mol]    -104.44080981 [kJ/mol]
      Elst10,r                    -40.42396186 [mEh]     -25.36641903 [kcal/mol]    -106.13309723 [kJ/mol]
      Elst12,r                      0.64455824 [mEh]       0.40446640 [kcal/mol]       1.69228742 [kJ/mol]

    Exchange                       10.17612508 [mEh]       6.38561489 [kcal/mol]      26.71741271 [kJ/mol]
      Exch10                        9.89205478 [mEh]       6.20735809 [kcal/mol]      25.97158624 [kJ/mol]
      Exch10(S^2)                   9.86711091 [mEh]       6.19170558 [kcal/mol]      25.90609614 [kJ/mol]
      Exch11(S^2)                  -0.09617456 [mEh]      -0.06035045 [kcal/mol]      -0.25250626 [kJ/mol]
      Exch12(S^2)                   0.38024486 [mEh]       0.23860725 [kcal/mol]       0.99833273 [kJ/mol]

    Induction                     -26.56406376 [mEh]     -16.66920167 [kcal/mol]     -69.74393980 [kJ/mol]
      Ind20,r                     -36.39716304 [mEh]     -22.83956462 [kcal/mol]     -95.56073839 [kJ/mol]
      Ind22                        -2.05370248 [mEh]      -1.28871776 [kcal/mol]      -5.39199512 [kJ/mol]
      Exch-Ind20,r                 12.32080152 [mEh]       7.73141968 [kcal/mol]      32.34825994 [kJ/mol]
      Exch-Ind22                    0.69519871 [mEh]       0.43624377 [kcal/mol]       1.82524395 [kJ/mol]
      delta HF,r (2)               -1.12919848 [mEh]      -0.70858274 [kcal/mol]      -2.96471019 [kJ/mol]

    Dispersion                     -0.40592389 [mEh]      -0.25472109 [kcal/mol]      -1.06575304 [kJ/mol]
      Disp20                       -0.43914580 [mEh]      -0.27556815 [kcal/mol]      -1.15297715 [kJ/mol]
      Disp21                       -0.01619638 [mEh]      -0.01016338 [kcal/mol]      -0.04252360 [kJ/mol]
      Disp22 (SDQ)                 -0.00056440 [mEh]      -0.00035417 [kcal/mol]      -0.00148184 [kJ/mol]
      Disp22 (T)                   -0.02364985 [mEh]      -0.01484051 [kcal/mol]      -0.06209268 [kJ/mol]
      Est. Disp22 (T)              -0.02903962 [mEh]      -0.01822263 [kcal/mol]      -0.07624350 [kJ/mol]
      Exch-Disp20                   0.07902231 [mEh]       0.04958725 [kcal/mol]       0.20747304 [kJ/mol]

  Total HF                        -55.73746707 [mEh]     -34.97578863 [kcal/mol]    -146.33869963 [kJ/mol]
  Total SAPT0                     -56.09759056 [mEh]     -35.20176954 [kcal/mol]    -147.28420374 [kJ/mol]
  Total SAPT2                     -56.52746580 [mEh]     -35.47152032 [kcal/mol]    -148.41284102 [kJ/mol]
  Total SAPT2+                    -56.57326620 [mEh]     -35.50026050 [kcal/mol]    -148.53308995 [kJ/mol]

  Special recipe for scaled SAPT0 (see Manual):
    Electrostatics sSAPT0         -40.42396186 [mEh]     -25.36641903 [kcal/mol]    -106.13309723 [kJ/mol]
    Exchange sSAPT0                 9.89205478 [mEh]       6.20735809 [kcal/mol]      25.97158624 [kJ/mol]
    Induction sSAPT0              -25.11188334 [mEh]     -15.75794470 [kcal/mol]     -65.93124063 [kJ/mol]
    Dispersion sSAPT0              -0.35952268 [mEh]      -0.22560389 [kcal/mol]      -0.94392666 [kJ/mol]
  Total sSAPT0                    -56.00331310 [mEh]     -35.14260953 [kcal/mol]    -147.03667828 [kJ/mol]
  --------------------------------------------------------------------------------------------------------

*** Psi4 exiting successfully. Buy a developer a beer!
