                               Psi4 1.9 release

  ==> Input File <==

--------------------------------------------------------------------------
MEMORY 60 GB

molecule dimer {
0 1
Li     0.000000     0.000000     0.000000
Br     0.000000     2.170734     0.000000
--
-1 1
Br     3.039028     0.000000     0.000000

units ang
no_reorient
no_com
symmetry c1
}

set {
basis        aug-cc-pVTZ
scf_type     df
}

energy("sapt2+")
--------------------------------------------------------------------------

  //              Dimer HF             //
    Molecular point group: c1
  Charge       = -1
  Multiplicity = 1
  Basis Set: AUG-CC-PVTZ
    Blend: AUG-CC-PVTZ
  Basis Set: (AUG-CC-PVTZ AUX)
    Blend: AUG-CC-PVTZ-JKFIT + DEF2-UNIVERSAL-JKFIT
  @DF-RHF Final Energy: -5152.55794920603057
    Total Energy =                      -5152.5579492060305711
 Dipole X            :       -205.8374937          201.0025713           -4.8349224
 Dipole Y            :       -146.5372407          143.5732463           -2.9639944
 Dipole Z            :         -0.0000000            0.0000000           -0.0000000
 Magnitude           :                                                    5.6711320
  //            Monomer A HF           //
    Molecular point group: c1
  Multiplicity = 1
  Basis Set: AUG-CC-PVTZ
    Blend: AUG-CC-PVTZ
  Basis Set: (AUG-CC-PVTZ AUX)
    Blend: AUG-CC-PVTZ-JKFIT + DEF2-UNIVERSAL-JKFIT
  @DF-RHF Final Energy: -2579.99946976610863
    Total Energy =                      -2579.9994697661086320
  //            Monomer B HF           //
    Molecular point group: c1

    Geometry (in Angstrom), charge = -1, multiplicity = 1:

       Center              X                  Y                   Z               Mass
    ------------   -----------------  -----------------  -----------------  -----------------
      Gh(LI)          0.000000000000     0.000000000000     0.000000000000     7.016003436600
      Gh(BR)          0.000000000000     2.170734000000     0.000000000000    78.918337600000
         BR           3.039028000000     0.000000000000     0.000000000000    78.918337600000

  Charge       = -1
  Multiplicity = 1
  Basis Set: AUG-CC-PVTZ
    Blend: AUG-CC-PVTZ
  Basis Set: (AUG-CC-PVTZ AUX)
    Blend: AUG-CC-PVTZ-JKFIT + DEF2-UNIVERSAL-JKFIT

    Orbital Energies [Eh]
    ---------------------

    Doubly Occupied:

       1A   -489.720821     2A    -64.860767     3A    -58.215258
       4A    -58.215257     5A    -58.215255     6A     -9.532945
       7A     -7.140294     8A     -7.140292     9A     -7.140279
      10A     -2.881969    11A     -2.881968    12A     -2.881966
      13A     -2.881964    14A     -2.881963    15A     -0.685999
      16A     -0.139342    17A     -0.139338    18A     -0.139338

  @DF-RHF Final Energy: -2572.53368272462512

   => Energetics <=

    Nuclear Repulsion Energy =              0.0000000000000000
    One-Electron Energy =               -3593.6773298394882659
    Two-Electron Energy =                1021.1436471148628016
    Total Energy =                      -2572.5336827246255780
 Dipole X            :       -206.7457194          201.0025713           -5.7431481
 Dipole Y            :          0.0000632            0.0000000            0.0000632
 Dipole Z            :         -0.0000000            0.0000000           -0.0000000
 Magnitude           :                                                    5.7431481

    SAPT Results
  --------------------------------------------------------------------------------------------------------
    Electrostatics                -31.15362289 [mEh]     -19.54919351 [kcal/mol]     -81.79382563 [kJ/mol]
      Elst10,r                    -30.52495325 [mEh]     -19.15469735 [kcal/mol]     -80.14325370 [kJ/mol]
      Elst12,r                     -0.62866965 [mEh]      -0.39449616 [kcal/mol]      -1.65057193 [kJ/mol]

    Exchange                       18.45213366 [mEh]      11.57888868 [kcal/mol]      48.44607025 [kJ/mol]
      Exch10                       16.34052137 [mEh]      10.25383197 [kcal/mol]      42.90203296 [kJ/mol]
      Exch10(S^2)                  16.13796612 [mEh]      10.12672663 [kcal/mol]      42.37022420 [kJ/mol]
      Exch11(S^2)                   1.07507873 [mEh]       0.67462209 [kcal/mol]       2.82261883 [kJ/mol]
      Exch12(S^2)                   1.03653355 [mEh]       0.65043462 [kcal/mol]       2.72141846 [kJ/mol]

    Induction                     -11.95108356 [mEh]      -7.49941815 [kcal/mol]     -31.37756556 [kJ/mol]
      Ind20,r                     -40.35495636 [mEh]     -25.32311743 [kcal/mol]    -105.95192332 [kJ/mol]
      Ind22                        -4.72375152 [mEh]      -2.96419883 [kcal/mol]     -12.40220790 [kJ/mol]
      Exch-Ind20,r                 28.91760180 [mEh]      18.14606909 [kcal/mol]      75.92315307 [kJ/mol]
      Exch-Ind22                    3.38495138 [mEh]       2.12408906 [kcal/mol]       8.88718863 [kJ/mol]
      delta HF,r (2)                0.82507113 [mEh]       0.51773995 [kcal/mol]       2.16622396 [kJ/mol]

    Dispersion                     -6.44282489 [mEh]      -4.04293366 [kcal/mol]     -16.91563442 [kJ/mol]
      Disp20                       -8.45657430 [mEh]      -5.30658049 [kcal/mol]     -22.20273277 [kJ/mol]
      Disp21                        1.14383959 [mEh]       0.71777018 [kcal/mol]       3.00315044 [kJ/mol]
      Disp22 (SDQ)                  0.02392593 [mEh]       0.01501375 [kcal/mol]       0.06281753 [kJ/mol]
      Disp22 (T)                   -1.35868849 [mEh]      -0.85258990 [kcal/mol]      -3.56723614 [kJ/mol]
      Est. Disp22 (T)              -1.53013019 [mEh]      -0.96017119 [kcal/mol]      -4.01735627 [kJ/mol]
      Exch-Disp20                   2.37611408 [mEh]       1.49103409 [kcal/mol]       6.23848665 [kJ/mol]

  Total HF                        -24.79671530 [mEh]     -15.56017377 [kcal/mol]     -65.10376704 [kJ/mol]
  Total SAPT0                     -30.87717552 [mEh]     -19.37572016 [kcal/mol]     -81.06801316 [kJ/mol]
  Total SAPT2                     -30.73303301 [mEh]     -19.28526937 [kcal/mol]     -80.68956706 [kJ/mol]
  Total SAPT2+                    -31.09539768 [mEh]     -19.51265664 [kcal/mol]     -81.64095537 [kJ/mol]

  Special recipe for scaled SAPT0 (see Manual):
    Electrostatics sSAPT0         -30.52495325 [mEh]     -19.15469735 [kcal/mol]     -80.14325370 [kJ/mol]
    Exchange sSAPT0                16.34052137 [mEh]      10.25383197 [kcal/mol]      42.90203296 [kJ/mol]
    Induction sSAPT0               -9.50968369 [mEh]      -5.96741661 [kcal/mol]     -24.96767110 [kJ/mol]
    Dispersion sSAPT0              -5.98986133 [mEh]      -3.75869473 [kcal/mol]     -15.72637875 [kJ/mol]
  Total sSAPT0                    -29.68397689 [mEh]     -18.62697672 [kcal/mol]     -77.93527059 [kJ/mol]
  --------------------------------------------------------------------------------------------------------

*** Psi4 exiting successfully. Buy a developer a beer!
