                               Psi4 1.9 release

  ==> Input File <==

--------------------------------------------------------------------------
MEMORY 60 GB

molecule dimer {
0 1
Li     0.000000     0.000000     0.000000
Br     0.000000     2.170734     0.000000
--
-1 1
Br     2.170734     0.000000     0.000000

units ang
no_reorient
no_com
symmetry c1
}

set {
basis        aug-cc-pVTZ
scf_type     df
}

energy("sapt2+")
--------------------------------------------------------------------------

  //              Dimer HF             //
    Molecular point group: c1
  Charge       = -1
  Multiplicity = 1
  Basis Set: AUG-CC-PVTZ
    Blend: AUG-CC-PVTZ
  Basis Set: (AUG-CC-PVTZ AUX)
    Blend: AUG-CC-PVTZ-JKFIT + DEF2-UNIVERSAL-JKFIT
  @DF-RHF Final Energy: -5152.54721074676945
    Total Energy =                      -5152.5472107467685419
 Dipole X            :       -146.6055164          143.5732463           -3.0322701
 Dipole Y            :       -146.6055164          143.5732463           -3.0322701
 Dipole Z            :         -0.0000000            0.0000000           -0.0000000
 Magnitude           :                                                    4.2882775
  //            Monomer A HF           //
    Molecular point group: c1
  Multiplicity = 1
  Basis Set: AUG-CC-PVTZ
    Blend: AUG-CC-PVTZ
  Basis Set: (AUG-CC-PVTZ AUX)
    Blend: AUG-CC-PVTZ-JKFIT + DEF2-UNIVERSAL-JKFIT
  @DF-RHF Final Energy: -2579.99949302505684
    Total Energy =                      -2579.9994930250568359
  //            Monomer B HF           //
    Molecular point group: c1

    Geometry (in Angstrom), charge = -1, multiplicity = 1:

       Center              X                  Y                   Z               Mass
    ------------   -----------------  -----------------  -----------------  -----------------
      Gh(LI)          0.000000000000     0.000000000000     0.000000000000     7.016003436600
      Gh(BR)          0.000000000000     2.170734000000     0.000000000000    78.918337600000
         BR           2.170734000000     0.000000000000     0.000000000000    78.918337600000

  Charge       = -1
  Multiplicity = 1
  Basis Set: AUG-CC-PVTZ
    Blend: AUG-CC-PVTZ
  Basis Set: (AUG-CC-PVTZ AUX)
    Blend: AUG-CC-PVTZ-JKFIT + DEF2-UNIVERSAL-JKFIT

    Orbital Energies [Eh]
    ---------------------

    Doubly Occupied:

       1A   -489.721310     2A    -64.861113     3A    -58.215622
       4A    -58.215621     5A    -58.215619     6A     -9.533055
       7A     -7.140402     8A     -7.140396     9A     -7.140383
      10A     -2.882093    11A     -2.882090    12A     -2.882082
      13A     -2.882078    14A     -2.882075    15A     -0.685999
      16A     -0.139342    17A     -0.139341    18A     -0.139337

  @DF-RHF Final Energy: -2572.53369630206134

   => Energetics <=

    Nuclear Repulsion Energy =              0.0000000000000000
    One-Electron Energy =               -3593.6714779762723992
    Two-Electron Energy =                1021.1377816742111690
    Total Energy =                      -2572.5336963020613439
 Dipole X            :       -147.6758190          143.5732463           -4.1025727
 Dipole Y            :          0.0001321            0.0000000            0.0001321
 Dipole Z            :         -0.0000000            0.0000000           -0.0000000
 Magnitude           :                                                    4.1025727

    SAPT Results
  --------------------------------------------------------------------------------------------------------
    Electrostatics               -101.38962387 [mEh]     -63.62294952 [kcal/mol]    -266.19842080 [kJ/mol]
      Elst10,r                    -98.02634520 [mEh]     -61.51246030 [kcal/mol]    -257.36813388 [kJ/mol]
      Elst12,r                     -3.36327867 [mEh]      -2.11048923 [kcal/mol]      -8.83028692 [kJ/mol]

    Exchange                      121.74562107 [mEh]      76.39653061 [kcal/mol]     319.64308408 [kJ/mol]
      Exch10                      115.22877377 [mEh]      72.30714719 [kcal/mol]     302.53310385 [kJ/mol]
      Exch10(S^2)                 109.02096700 [mEh]      68.41168964 [kcal/mol]     286.23450944 [kJ/mol]
      Exch11(S^2)                   2.37657560 [mEh]       1.49132370 [kcal/mol]       6.23969837 [kJ/mol]
      Exch12(S^2)                   4.14027170 [mEh]       2.59805972 [kcal/mol]      10.87028186 [kJ/mol]

    Induction                     -35.40791641 [mEh]     -22.21880300 [kcal/mol]     -92.96347174 [kJ/mol]
      Ind20,r                    -248.08976164 [mEh]    -155.67867578 [kcal/mol]    -651.35957945 [kJ/mol]
      Ind22                       -25.10598429 [mEh]     -15.75424299 [kcal/mol]     -65.91575266 [kJ/mol]
      Exch-Ind20,r                206.74406215 [mEh]     129.73385765 [kcal/mol]     542.80646039 [kJ/mol]
      Exch-Ind22                   20.92191609 [mEh]      13.12870056 [kcal/mol]      54.93048312 [kJ/mol]
      delta HF,r (2)               10.12185128 [mEh]       6.35155757 [kcal/mol]      26.57491686 [kJ/mol]

    Dispersion                    -17.58660625 [mEh]     -11.03576203 [kcal/mol]     -46.17362835 [kJ/mol]
      Disp20                      -26.69071675 [mEh]     -16.74867763 [kcal/mol]     -70.07646719 [kJ/mol]
      Disp21                        4.02028917 [mEh]       2.52276954 [kcal/mol]      10.55526777 [kJ/mol]
      Disp22 (SDQ)                  0.18197882 [mEh]       0.11419343 [kcal/mol]       0.47778532 [kJ/mol]
      Disp22 (T)                   -3.94920488 [mEh]      -2.47816348 [kcal/mol]     -10.36863599 [kJ/mol]
      Est. Disp22 (T)              -4.23561716 [mEh]      -2.65788990 [kcal/mol]     -11.12061132 [kJ/mol]
      Exch-Disp20                   9.13745967 [mEh]       5.73384251 [kcal/mol]      23.99039707 [kJ/mol]

  Total HF                        -14.02141965 [mEh]      -8.79857367 [kcal/mol]     -36.81323222 [kJ/mol]
  Total SAPT0                     -31.57467673 [mEh]     -19.81340878 [kcal/mol]     -82.89930234 [kJ/mol]
  Total SAPT2                     -32.60517630 [mEh]     -20.46005702 [kcal/mol]     -85.60487857 [kJ/mol]
  Total SAPT2+                    -32.63852547 [mEh]     -20.48098394 [kcal/mol]     -85.69243680 [kJ/mol]

  Special recipe for scaled SAPT0 (see Manual):
    Electrostatics sSAPT0         -98.02634520 [mEh]     -61.51246030 [kcal/mol]    -257.36813388 [kJ/mol]
    Exchange sSAPT0               115.22877377 [mEh]      72.30714719 [kcal/mol]     302.53310385 [kJ/mol]
    Induction sSAPT0                6.14220524 [mEh]       3.85429198 [kcal/mol]      16.12635762 [kJ/mol]
    Dispersion sSAPT0             -15.90179100 [mEh]      -9.97852450 [kcal/mol]     -41.75014651 [kJ/mol]
  Total sSAPT0                      7.44284280 [mEh]       4.67045437 [kcal/mol]      19.54118109 [kJ/mol]
  --------------------------------------------------------------------------------------------------------

*** Psi4 exiting successfully. Buy a developer a beer!
