                               Psi4 1.9 release

  ==> Input File <==

--------------------------------------------------------------------------
MEMORY 60 GB

molecule dimer {
0 1
Li     0.000000     0.000000     0.000000
Br     0.000000     2.170734     0.000000
--
-1 1
Br     2.387807     0.000000     0.000000

units ang
no_reorient
no_com
symmetry c1
}

set {
basis        aug-cc-pVTZ
scf_type     df
}

energy("sapt2+")
--------------------------------------------------------------------------

  //              Dimer HF             //
    Molecular point group: c1
  Charge       = -1
  Multiplicity = 1
  Basis Set: AUG-CC-PVTZ
    Blend: AUG-CC-PVTZ
  Basis Set: (AUG-CC-PVTZ AUX)
    Blend: AUG-CC-PVTZ-JKFIT + DEF2-UNIVERSAL-JKFIT
  @DF-RHF Final Energy: -5152.55835198611931
    Total Energy =                      -5152.5583519861193054
 Dipole X            :       -161.3810773          157.9305445           -3.4505328
 Dipole Y            :       -146.5890211          143.5732463           -3.0157748
 Dipole Z            :         -0.0000000            0.0000000           -0.0000000
 Magnitude           :                                                    4.5826930
  //            Monomer A HF           //
    Molecular point group: c1
  Multiplicity = 1
  Basis Set: AUG-CC-PVTZ
    Blend: AUG-CC-PVTZ
  Basis Set: (AUG-CC-PVTZ AUX)
    Blend: AUG-CC-PVTZ-JKFIT + DEF2-UNIVERSAL-JKFIT
  @DF-RHF Final Energy: -2579.99948291991541
    Total Energy =                      -2579.9994829199149535
  //            Monomer B HF           //
    Molecular point group: c1

    Geometry (in Angstrom), charge = -1, multiplicity = 1:

       Center              X                  Y                   Z               Mass
    ------------   -----------------  -----------------  -----------------  -----------------
      Gh(LI)          0.000000000000     0.000000000000     0.000000000000     7.016003436600
      Gh(BR)          0.000000000000     2.170734000000     0.000000000000    78.918337600000
         BR           2.387807000000     0.000000000000     0.000000000000    78.918337600000

  Charge       = -1
  Multiplicity = 1
  Basis Set: AUG-CC-PVTZ
    Blend: AUG-CC-PVTZ
  Basis Set: (AUG-CC-PVTZ AUX)
    Blend: AUG-CC-PVTZ-JKFIT + DEF2-UNIVERSAL-JKFIT

    Orbital Energies [Eh]
    ---------------------

    Doubly Occupied:

       1A   -489.721141     2A    -64.860993     3A    -58.215496
       4A    -58.215495     5A    -58.215493     6A     -9.533016
       7A     -7.140365     8A     -7.140360     9A     -7.140346
      10A     -2.882050    11A     -2.882048    12A     -2.882041
      13A     -2.882037    14A     -2.882036    15A     -0.685998
      16A     -0.139341    17A     -0.139340    18A     -0.139338

  @DF-RHF Final Energy: -2572.53369207604146

   => Energetics <=

    Nuclear Repulsion Energy =              0.0000000000000000
    One-Electron Energy =               -3593.6735133204574595
    Two-Electron Energy =                1021.1398212444158844
    Total Energy =                      -2572.5336920760414614
 Dipole X            :       -162.4432854          157.9305445           -4.5127409
 Dipole Y            :          0.0001301            0.0000000            0.0001301
 Dipole Z            :          0.0000000            0.0000000            0.0000000
 Magnitude           :                                                    4.5127409

    SAPT Results
  --------------------------------------------------------------------------------------------------------
    Electrostatics                -74.96857017 [mEh]     -47.04348802 [kcal/mol]    -196.82995387 [kJ/mol]
      Elst10,r                    -72.54896866 [mEh]     -45.52516515 [kcal/mol]    -190.47729098 [kJ/mol]
      Elst12,r                     -2.41960151 [mEh]      -1.51832287 [kcal/mol]      -6.35266289 [kJ/mol]

    Exchange                       76.35199731 [mEh]      47.91160165 [kcal/mol]     200.46214132 [kJ/mol]
      Exch10                       70.96462862 [mEh]      44.53097676 [kcal/mol]     186.31760677 [kJ/mol]
      Exch10(S^2)                  68.22735962 [mEh]      42.81331453 [kcal/mol]     179.13090801 [kJ/mol]
      Exch11(S^2)                   2.31919421 [mEh]       1.45531634 [kcal/mol]       6.08904356 [kJ/mol]
      Exch12(S^2)                   3.06817448 [mEh]       1.92530855 [kcal/mol]       8.05549099 [kJ/mol]

    Induction                     -26.47347367 [mEh]     -16.61235553 [kcal/mol]     -69.50609553 [kJ/mol]
      Ind20,r                    -156.56586332 [mEh]     -98.24656250 [kcal/mol]    -411.06361751 [kJ/mol]
      Ind22                       -16.56068800 [mEh]     -10.39198861 [kcal/mol]     -43.48008034 [kJ/mol]
      Exch-Ind20,r                129.33036285 [mEh]      81.15602793 [kcal/mol]     339.55682087 [kJ/mol]
      Exch-Ind22                   13.67986445 [mEh]       8.58424454 [kcal/mol]      35.91647916 [kJ/mol]
      delta HF,r (2)                3.64285035 [mEh]       2.28592311 [kcal/mol]       9.56430228 [kJ/mol]

    Dispersion                    -13.68886296 [mEh]      -8.58989120 [kcal/mol]     -35.94010476 [kJ/mol]
      Disp20                      -20.19879260 [mEh]     -12.67493371 [kcal/mol]     -53.03192265 [kJ/mol]
      Disp21                        2.95502063 [mEh]       1.85430344 [kcal/mol]       7.75840560 [kJ/mol]
      Disp22 (SDQ)                  0.12603890 [mEh]       0.07909061 [kcal/mol]       0.33091509 [kJ/mol]
      Disp22 (T)                   -3.04432138 [mEh]      -1.91034051 [kcal/mol]      -7.99286468 [kJ/mol]
      Est. Disp22 (T)              -3.32818611 [mEh]      -2.08846831 [kcal/mol]      -8.73815143 [kJ/mol]
      Exch-Disp20                   6.75705621 [mEh]       4.24011678 [kcal/mol]      17.74064862 [kJ/mol]

  Total HF                        -25.17699016 [mEh]     -15.79879985 [kcal/mol]     -66.10217856 [kJ/mol]
  Total SAPT0                     -38.61872655 [mEh]     -24.23361678 [kcal/mol]    -101.39345259 [kJ/mol]
  Total SAPT2                     -38.53178292 [mEh]     -24.17905882 [kcal/mol]    -101.16518211 [kJ/mol]
  Total SAPT2+                    -38.77890949 [mEh]     -24.33413309 [kcal/mol]    -101.81401284 [kJ/mol]

  Special recipe for scaled SAPT0 (see Manual):
    Electrostatics sSAPT0         -72.54896866 [mEh]     -45.52516515 [kcal/mol]    -190.47729098 [kJ/mol]
    Exchange sSAPT0                70.96462862 [mEh]      44.53097676 [kcal/mol]     186.31760677 [kJ/mol]
    Induction sSAPT0               -7.39365771 [mEh]      -4.63959026 [kcal/mol]     -19.41204563 [kJ/mol]
    Dispersion sSAPT0             -12.59539606 [mEh]      -7.90373035 [kcal/mol]     -33.06920779 [kJ/mol]
  Total sSAPT0                    -21.57339381 [mEh]     -13.53750900 [kcal/mol]     -56.64093764 [kJ/mol]
  --------------------------------------------------------------------------------------------------------

*** Psi4 exiting successfully. Buy a developer a beer!
