                               Psi4 1.9 release

  ==> Input File <==

--------------------------------------------------------------------------
MEMORY 60 GB

molecule dimer {
0 1
Li     0.000000     0.000000     0.000000
Br     0.000000     2.170734     0.000000
--
-1 1
Br     3.256101     0.000000     0.000000

units ang
no_reorient
no_com
symmetry c1
}

set {
basis        aug-cc-pVTZ
scf_type     df
}

energy("sapt2+")
--------------------------------------------------------------------------

  //              Dimer HF             //
    Molecular point group: c1
  Charge       = -1
  Multiplicity = 1
  Basis Set: AUG-CC-PVTZ
    Blend: AUG-CC-PVTZ
  Basis Set: (AUG-CC-PVTZ AUX)
    Blend: AUG-CC-PVTZ-JKFIT + DEF2-UNIVERSAL-JKFIT
  @DF-RHF Final Energy: -5152.55498217544755
    Total Energy =                      -5152.5549821754475488
 Dipole X            :       -220.6774753          215.3598694           -5.3176059
 Dipole Y            :       -146.5257191          143.5732463           -2.9524728
 Dipole Z            :         -0.0000000            0.0000000           -0.0000000
 Magnitude           :                                                    6.0822716
  //            Monomer A HF           //
    Molecular point group: c1
  Multiplicity = 1
  Basis Set: AUG-CC-PVTZ
    Blend: AUG-CC-PVTZ
  Basis Set: (AUG-CC-PVTZ AUX)
    Blend: AUG-CC-PVTZ-JKFIT + DEF2-UNIVERSAL-JKFIT
  @DF-RHF Final Energy: -2579.99946568419773
    Total Energy =                      -2579.9994656841981850
  //            Monomer B HF           //
    Molecular point group: c1

    Geometry (in Angstrom), charge = -1, multiplicity = 1:

       Center              X                  Y                   Z               Mass
    ------------   -----------------  -----------------  -----------------  -----------------
      Gh(LI)          0.000000000000     0.000000000000     0.000000000000     7.016003436600
      Gh(BR)          0.000000000000     2.170734000000     0.000000000000    78.918337600000
         BR           3.256101000000     0.000000000000     0.000000000000    78.918337600000

  Charge       = -1
  Multiplicity = 1
  Basis Set: AUG-CC-PVTZ
    Blend: AUG-CC-PVTZ
  Basis Set: (AUG-CC-PVTZ AUX)
    Blend: AUG-CC-PVTZ-JKFIT + DEF2-UNIVERSAL-JKFIT

    Orbital Energies [Eh]
    ---------------------

    Doubly Occupied:

       1A   -489.720753     2A    -64.860720     3A    -58.215208
       4A    -58.215207     5A    -58.215205     6A     -9.532931
       7A     -7.140280     8A     -7.140277     9A     -7.140266
      10A     -2.881953    11A     -2.881952    12A     -2.881951
      13A     -2.881949    14A     -2.881947    15A     -0.685999
      16A     -0.139343    17A     -0.139337    18A     -0.139337

  @DF-RHF Final Energy: -2572.53368046321884

   => Energetics <=

    Nuclear Repulsion Energy =              0.0000000000000000
    One-Electron Energy =               -3593.6781271730874323
    Two-Electron Energy =                1021.1444467098683617
    Total Energy =                      -2572.5336804632188432
 Dipole X            :       -221.5131605          215.3598694           -6.1532911
 Dipole Y            :          0.0000593            0.0000000            0.0000593
 Dipole Z            :         -0.0000000            0.0000000           -0.0000000
 Magnitude           :                                                    6.1532911

    SAPT Results
  --------------------------------------------------------------------------------------------------------
    Electrostatics                -24.04917385 [mEh]     -15.09108443 [kcal/mol]     -63.14109724 [kJ/mol]
      Elst10,r                    -23.72980580 [mEh]     -14.89067795 [kcal/mol]     -62.30259654 [kJ/mol]
      Elst12,r                     -0.31936805 [mEh]      -0.20040648 [kcal/mol]      -0.83850070 [kJ/mol]

    Exchange                       11.36041596 [mEh]       7.12876864 [kcal/mol]      29.82676799 [kJ/mol]
      Exch10                        9.92009213 [mEh]       6.22495179 [kcal/mol]      26.04519829 [kJ/mol]
      Exch10(S^2)                   9.83945228 [mEh]       6.17434952 [kcal/mol]      25.83347840 [kJ/mol]
      Exch11(S^2)                   0.74563811 [mEh]       0.46789498 [kcal/mol]       1.95767259 [kJ/mol]
      Exch12(S^2)                   0.69468572 [mEh]       0.43592187 [kcal/mol]       1.82389711 [kJ/mol]

    Induction                      -9.11359433 [mEh]      -5.71886678 [kcal/mol]     -23.92773863 [kJ/mol]
      Ind20,r                     -26.45013048 [mEh]     -16.59770746 [kcal/mol]     -69.44480802 [kJ/mol]
      Ind22                        -3.14679059 [mEh]      -1.97464091 [kcal/mol]      -8.26189755 [kJ/mol]
      Exch-Ind20,r                 17.31107391 [mEh]      10.86286288 [kcal/mol]      45.45021828 [kJ/mol]
      Exch-Ind22                    2.05951061 [mEh]       1.29236242 [kcal/mol]       5.40724437 [kJ/mol]
      delta HF,r (2)                1.11274222 [mEh]       0.69825628 [kcal/mol]       2.92150430 [kJ/mol]

    Dispersion                     -4.98814184 [mEh]      -3.13010626 [kcal/mol]     -13.09636460 [kJ/mol]
      Disp20                       -6.28372345 [mEh]      -3.94309600 [kcal/mol]     -16.49791365 [kJ/mol]
      Disp21                        0.83675787 [mEh]       0.52507349 [kcal/mol]       2.19690749 [kJ/mol]
      Disp22 (SDQ)                  0.00812283 [mEh]       0.00509715 [kcal/mol]       0.02132648 [kJ/mol]
      Disp22 (T)                   -1.02789197 [mEh]      -0.64501195 [kcal/mol]      -2.69873000 [kJ/mol]
      Est. Disp22 (T)              -1.16743515 [mEh]      -0.73257662 [kcal/mol]      -3.06510056 [kJ/mol]
      Exch-Disp20                   1.61813606 [mEh]       1.01539571 [kcal/mol]       4.24841564 [kJ/mol]

  Total HF                        -21.83602803 [mEh]     -13.70231446 [kcal/mol]     -57.33048370 [kJ/mol]
  Total SAPT0                     -26.50161542 [mEh]     -16.63001475 [kcal/mol]     -69.57998170 [kJ/mol]
  Total SAPT2                     -26.46793962 [mEh]     -16.60888286 [kcal/mol]     -69.49156589 [kJ/mol]
  Total SAPT2+                    -26.79049407 [mEh]     -16.81128883 [kcal/mol]     -70.33843248 [kJ/mol]

  Special recipe for scaled SAPT0 (see Manual):
    Electrostatics sSAPT0         -23.72980580 [mEh]     -14.89067795 [kcal/mol]     -62.30259654 [kJ/mol]
    Exchange sSAPT0                 9.92009213 [mEh]       6.22495179 [kcal/mol]      26.04519829 [kJ/mol]
    Induction sSAPT0               -7.59719466 [mEh]      -4.76731162 [kcal/mol]     -19.94643182 [kJ/mol]
    Dispersion sSAPT0              -4.62547584 [mEh]      -2.90252991 [kcal/mol]     -12.14418514 [kJ/mol]
  Total sSAPT0                    -26.03238417 [mEh]     -16.33556769 [kcal/mol]     -68.34801522 [kJ/mol]
  --------------------------------------------------------------------------------------------------------

*** Psi4 exiting successfully. Buy a developer a beer!
