                               Psi4 1.9 release

  ==> Input File <==

--------------------------------------------------------------------------
MEMORY 60 GB

molecule dimer {
0 1
Li     0.000000     0.000000     0.000000
Br     0.000000     2.170734     0.000000
--
-1 1
Br     2.604881     0.000000     0.000000

units ang
no_reorient
no_com
symmetry c1
}

set {
basis        aug-cc-pVTZ
scf_type     df
}

energy("sapt2+")
--------------------------------------------------------------------------

  //              Dimer HF             //
    Molecular point group: c1
  Charge       = -1
  Multiplicity = 1
  Basis Set: AUG-CC-PVTZ
    Blend: AUG-CC-PVTZ
  Basis Set: (AUG-CC-PVTZ AUX)
    Blend: AUG-CC-PVTZ-JKFIT + DEF2-UNIVERSAL-JKFIT
  @DF-RHF Final Energy: -5152.56129175376736
    Total Energy =                      -5152.5612917537673638
 Dipole X            :       -176.1826454          172.2879088           -3.8947366
 Dipole Y            :       -146.5699793          143.5732463           -2.9967330
 Dipole Z            :         -0.0000000            0.0000000           -0.0000000
 Magnitude           :                                                    4.9142021
  //            Monomer A HF           //
    Molecular point group: c1
  Multiplicity = 1
  Basis Set: AUG-CC-PVTZ
    Blend: AUG-CC-PVTZ
  Basis Set: (AUG-CC-PVTZ AUX)
    Blend: AUG-CC-PVTZ-JKFIT + DEF2-UNIVERSAL-JKFIT
  @DF-RHF Final Energy: -2579.99947795458093
    Total Energy =                      -2579.9994779545809251
  //            Monomer B HF           //
    Molecular point group: c1

    Geometry (in Angstrom), charge = -1, multiplicity = 1:

       Center              X                  Y                   Z               Mass
    ------------   -----------------  -----------------  -----------------  -----------------
      Gh(LI)          0.000000000000     0.000000000000     0.000000000000     7.016003436600
      Gh(BR)          0.000000000000     2.170734000000     0.000000000000    78.918337600000
         BR           2.604881000000     0.000000000000     0.000000000000    78.918337600000

  Charge       = -1
  Multiplicity = 1
  Basis Set: AUG-CC-PVTZ
    Blend: AUG-CC-PVTZ
  Basis Set: (AUG-CC-PVTZ AUX)
    Blend: AUG-CC-PVTZ-JKFIT + DEF2-UNIVERSAL-JKFIT

    Orbital Energies [Eh]
    ---------------------

    Doubly Occupied:

       1A   -489.721006     2A    -64.860898     3A    -58.215396
       4A    -58.215395     5A    -58.215393     6A     -9.532986
       7A     -7.140336     8A     -7.140331     9A     -7.140318
      10A     -2.882016    11A     -2.882015    12A     -2.882009
      13A     -2.882006    14A     -2.882005    15A     -0.685998
      16A     -0.139340    17A     -0.139340    18A     -0.139338

  @DF-RHF Final Energy: -2572.53368835630408

   => Energetics <=

    Nuclear Repulsion Energy =              0.0000000000000000
    One-Electron Energy =               -3593.6751209520834891
    Two-Electron Energy =                1021.1414325957792926
    Total Energy =                      -2572.5336883563040828
 Dipole X            :       -177.2108009          172.2879088           -4.9228921
 Dipole Y            :          0.0001087            0.0000000            0.0001087
 Dipole Z            :          0.0000000            0.0000000            0.0000000
 Magnitude           :                                                    4.9228921

    SAPT Results
  --------------------------------------------------------------------------------------------------------
    Electrostatics                -55.36531319 [mEh]     -34.74225855 [kcal/mol]    -145.36160976 [kJ/mol]
      Elst10,r                    -53.71031013 [mEh]     -33.70372845 [kcal/mol]    -141.01639983 [kJ/mol]
      Elst12,r                     -1.65500306 [mEh]      -1.03853010 [kcal/mol]      -4.34520993 [kJ/mol]

    Exchange                       47.79740341 [mEh]      29.99332346 [kcal/mol]     125.49206536 [kJ/mol]
      Exch10                       43.66626294 [mEh]      27.40099368 [kcal/mol]     114.64575756 [kJ/mol]
      Exch10(S^2)                  42.48622974 [mEh]      26.66051167 [kcal/mol]     111.54758082 [kJ/mol]
      Exch11(S^2)                   1.94090828 [mEh]       1.21793833 [kcal/mol]       5.09585398 [kJ/mol]
      Exch12(S^2)                   2.19023219 [mEh]       1.37439145 [kcal/mol]       5.75045382 [kJ/mol]

    Induction                     -20.21688806 [mEh]     -12.68628879 [kcal/mol]     -53.07943230 [kJ/mol]
      Ind20,r                     -98.77321883 [mEh]     -61.98113057 [kcal/mol]    -259.32905031 [kJ/mol]
      Ind22                       -10.87944209 [mEh]      -6.82695298 [kcal/mol]     -28.56397126 [kJ/mol]
      Exch-Ind20,r                 79.38532615 [mEh]      49.81504424 [kcal/mol]     208.42614510 [kJ/mol]
      Exch-Ind22                    8.74394971 [mEh]       5.48691128 [kcal/mol]      22.95723681 [kJ/mol]
      delta HF,r (2)                1.30649699 [mEh]       0.81983924 [kcal/mol]       3.43020737 [kJ/mol]

    Dispersion                    -10.66380239 [mEh]      -6.69163703 [kcal/mol]     -27.99780933 [kJ/mol]
      Disp20                      -15.18585564 [mEh]      -9.52926828 [kcal/mol]     -39.87045848 [kJ/mol]
      Disp21                        2.15709155 [mEh]       1.35359538 [kcal/mol]       5.66344307 [kJ/mol]
      Disp22 (SDQ)                  0.08116746 [mEh]       0.05093335 [kcal/mol]       0.21310514 [kJ/mol]
      Disp22 (T)                   -2.34031584 [mEh]      -1.46857036 [kcal/mol]      -6.14449840 [kJ/mol]
      Est. Disp22 (T)              -2.58547152 [mEh]      -1.62240787 [kcal/mol]      -6.78815454 [kJ/mol]
      Exch-Disp20                   4.86926576 [mEh]       3.05551039 [kcal/mol]      12.78425548 [kJ/mol]

  Total HF                        -28.12544288 [mEh]     -17.64898186 [kcal/mol]     -73.84334011 [kJ/mol]
  Total SAPT0                     -38.44203276 [mEh]     -24.12273975 [kcal/mol]    -100.92954311 [kJ/mol]
  Total SAPT2                     -38.10138773 [mEh]     -23.90898176 [kcal/mol]    -100.03517969 [kJ/mol]
  Total SAPT2+                    -38.44860024 [mEh]     -24.12686090 [kcal/mol]    -100.94678602 [kJ/mol]

  Special recipe for scaled SAPT0 (see Manual):
    Electrostatics sSAPT0         -53.71031013 [mEh]     -33.70372845 [kcal/mol]    -141.01639983 [kJ/mol]
    Exchange sSAPT0                43.66626294 [mEh]      27.40099368 [kcal/mol]     114.64575756 [kJ/mol]
    Induction sSAPT0              -11.28131608 [mEh]      -7.07913272 [kcal/mol]     -29.61909129 [kJ/mol]
    Dispersion sSAPT0              -9.89949271 [mEh]      -6.21202546 [kcal/mol]     -25.99111453 [kJ/mol]
  Total sSAPT0                    -31.22485598 [mEh]     -19.59389295 [kcal/mol]     -81.98084808 [kJ/mol]
  --------------------------------------------------------------------------------------------------------

*** Psi4 exiting successfully. Buy a developer a beer!
