                               Psi4 1.9 release

  ==> Input File <==

--------------------------------------------------------------------------
MEMORY 60 GB

molecule dimer {
0 1
Li     0.000000     0.000000     0.000000
Br     0.000000     2.170734     0.000000
--
-1 1
Br     4.341468     0.000000     0.000000

units ang
no_reorient
no_com
symmetry c1
}

set {
basis        aug-cc-pVTZ
scf_type     df
}

energy("sapt2+")
--------------------------------------------------------------------------

  //              Dimer HF             //
    Molecular point group: c1
  Charge       = -1
  Multiplicity = 1
  Basis Set: AUG-CC-PVTZ
    Blend: AUG-CC-PVTZ
  Basis Set: (AUG-CC-PVTZ AUX)
    Blend: AUG-CC-PVTZ-JKFIT + DEF2-UNIVERSAL-JKFIT
  @DF-RHF Final Energy: -5152.54334129069048
    Total Energy =                      -5152.5433412906913873
 Dipole X            :       -294.8441203          287.1464926           -7.6976277
 Dipole Y            :       -146.5051849          143.5732463           -2.9319386
 Dipole Z            :         -0.0000000            0.0000000           -0.0000000
 Magnitude           :                                                    8.2370951
  //            Monomer A HF           //
    Molecular point group: c1
  Multiplicity = 1
  Basis Set: AUG-CC-PVTZ
    Blend: AUG-CC-PVTZ
  Basis Set: (AUG-CC-PVTZ AUX)
    Blend: AUG-CC-PVTZ-JKFIT + DEF2-UNIVERSAL-JKFIT
  @DF-RHF Final Energy: -2579.99945576951313
    Total Energy =                      -2579.9994557695135882
  //            Monomer B HF           //
    Molecular point group: c1

    Geometry (in Angstrom), charge = -1, multiplicity = 1:

       Center              X                  Y                   Z               Mass
    ------------   -----------------  -----------------  -----------------  -----------------
      Gh(LI)          0.000000000000     0.000000000000     0.000000000000     7.016003436600
      Gh(BR)          0.000000000000     2.170734000000     0.000000000000    78.918337600000
         BR           4.341468000000     0.000000000000     0.000000000000    78.918337600000

  Charge       = -1
  Multiplicity = 1
  Basis Set: AUG-CC-PVTZ
    Blend: AUG-CC-PVTZ
  Basis Set: (AUG-CC-PVTZ AUX)
    Blend: AUG-CC-PVTZ-JKFIT + DEF2-UNIVERSAL-JKFIT

    Orbital Energies [Eh]
    ---------------------

    Doubly Occupied:

       1A   -489.720515     2A    -64.860561     3A    -58.215036
       4A    -58.215036     5A    -58.215035     6A     -9.532886
       7A     -7.140230     8A     -7.140230     9A     -7.140225
      10A     -2.881899    11A     -2.881898    12A     -2.881898
      13A     -2.881897    14A     -2.881893    15A     -0.686001
      16A     -0.139341    17A     -0.139338    18A     -0.139337

  @DF-RHF Final Energy: -2572.53367311069314

   => Energetics <=

    Nuclear Repulsion Energy =              0.0000000000000000
    One-Electron Energy =               -3593.6808317588634054
    Two-Electron Energy =                1021.1471586481704890
    Total Energy =                      -2572.5336731106926891
 Dipole X            :       -295.3507613          287.1464926           -8.2042687
 Dipole Y            :         -0.0000054            0.0000000           -0.0000054
 Dipole Z            :          0.0000000            0.0000000            0.0000000
 Magnitude           :                                                    8.2042687

    SAPT Results
  --------------------------------------------------------------------------------------------------------
    Electrostatics                 -8.53168788 [mEh]      -5.35371497 [kcal/mol]     -22.39994345 [kJ/mol]
      Elst10,r                     -8.71394335 [mEh]      -5.46808201 [kcal/mol]     -22.87845512 [kJ/mol]
      Elst12,r                      0.18225547 [mEh]       0.11436703 [kcal/mol]       0.47851167 [kJ/mol]

    Exchange                        0.93817554 [mEh]       0.58871404 [kcal/mol]       2.46317955 [kJ/mol]
      Exch10                        0.76931227 [mEh]       0.48275074 [kcal/mol]       2.01982909 [kJ/mol]
      Exch10(S^2)                   0.76874115 [mEh]       0.48239236 [kcal/mol]       2.01832962 [kJ/mol]
      Exch11(S^2)                   0.08543553 [mEh]       0.05361161 [kcal/mol]       0.22431096 [kJ/mol]
      Exch12(S^2)                   0.08342774 [mEh]       0.05235170 [kcal/mol]       0.21903950 [kJ/mol]

    Induction                      -2.63258215 [mEh]      -1.65197024 [kcal/mol]      -6.91184347 [kJ/mol]
      Ind20,r                      -4.72848204 [mEh]      -2.96716727 [kcal/mol]     -12.41462787 [kJ/mol]
      Ind22                        -0.51097464 [mEh]      -0.32064143 [kcal/mol]      -1.34156374 [kJ/mol]
      Exch-Ind20,r                  1.35265267 [mEh]       0.84880236 [kcal/mol]       3.55138909 [kJ/mol]
      Exch-Ind22                    0.14617190 [mEh]       0.09172425 [kcal/mol]       0.38377428 [kJ/mol]
      delta HF,r (2)                1.10804996 [mEh]       0.69531185 [kcal/mol]       2.90918478 [kJ/mol]

    Dispersion                     -1.36870131 [mEh]      -0.85887304 [kcal/mol]      -3.59352481 [kJ/mol]
      Disp20                       -1.46230843 [mEh]      -0.91761239 [kcal/mol]      -3.83929026 [kJ/mol]
      Disp21                        0.19923242 [mEh]       0.12502023 [kcal/mol]       0.52308465 [kJ/mol]
      Disp22 (SDQ)                 -0.00936554 [mEh]      -0.00587696 [kcal/mol]      -0.02458921 [kJ/mol]
      Disp22 (T)                   -0.26231429 [mEh]      -0.16460470 [kcal/mol]      -0.68870607 [kJ/mol]
      Est. Disp22 (T)              -0.29693943 [mEh]      -0.18633231 [kcal/mol]      -0.77961437 [kJ/mol]
      Exch-Disp20                   0.20067967 [mEh]       0.12592839 [kcal/mol]       0.52688439 [kJ/mol]

  Total HF                        -10.21241048 [mEh]      -6.40838433 [kcal/mol]     -26.81268003 [kJ/mol]
  Total SAPT0                     -11.47403925 [mEh]      -7.20006833 [kcal/mol]     -30.12508590 [kJ/mol]
  Total SAPT2                     -11.48772325 [mEh]      -7.20865517 [kcal/mol]     -30.16101324 [kJ/mol]
  Total SAPT2+                    -11.59479580 [mEh]      -7.27584421 [kcal/mol]     -30.44213218 [kJ/mol]

  Special recipe for scaled SAPT0 (see Manual):
    Electrostatics sSAPT0          -8.71394335 [mEh]      -5.46808201 [kcal/mol]     -22.87845512 [kJ/mol]
    Exchange sSAPT0                 0.76931227 [mEh]       0.48275074 [kcal/mol]       2.01982909 [kJ/mol]
    Induction sSAPT0               -2.26476239 [mEh]      -1.42115986 [kcal/mol]      -5.94613284 [kJ/mol]
    Dispersion sSAPT0              -1.26118116 [mEh]      -0.79140313 [kcal/mol]      -3.31123068 [kJ/mol]
  Total sSAPT0                    -11.47057463 [mEh]      -7.19789425 [kcal/mol]     -30.11598955 [kJ/mol]
  --------------------------------------------------------------------------------------------------------

*** Psi4 exiting successfully. Buy a developer a beer!
