                               Psi4 1.9 release

  ==> Input File <==

--------------------------------------------------------------------------
MEMORY 60 GB

molecule dimer {
0 1
F      0.000000     0.000000     0.000000
Na     0.000000     1.939580     0.000000
--
1 1
Na     2.715412     0.000000     0.000000

units ang
no_reorient
no_com
symmetry c1
}

set {
basis        aug-cc-pVTZ
scf_type     df
}

energy("sapt2+")
--------------------------------------------------------------------------

  //              Dimer HF             //
    Molecular point group: c1
  Charge       = 1
  Multiplicity = 1
  Basis Set: AUG-CC-PVTZ
    Blend: AUG-CC-PVTZ
  Basis Set: (AUG-CC-PVTZ AUX)
    Blend: AUG-CC-PVTZ-JKFIT + DEF2-UNIVERSAL-JKFIT
  @DF-RHF Final Energy:  -423.08589492366292
    Total Energy =                       -423.0858949236629201
 Dipole X            :        -51.6150831           56.4452350            4.8301518
 Dipole Y            :        -36.9663845           40.3180250            3.3516404
 Dipole Z            :         -0.0000000            0.0000000           -0.0000000
 Magnitude           :                                                    5.8791037
  //            Monomer A HF           //
    Molecular point group: c1
  Multiplicity = 1
  Basis Set: AUG-CC-PVTZ
    Blend: AUG-CC-PVTZ
  Basis Set: (AUG-CC-PVTZ AUX)
    Blend: AUG-CC-PVTZ-JKFIT + DEF2-UNIVERSAL-JKFIT
  @DF-RHF Final Energy:  -261.37059352447687
    Total Energy =                       -261.3705935244769307
  //            Monomer B HF           //
    Molecular point group: c1

    Geometry (in Angstrom), charge = 1, multiplicity = 1:

       Center              X                  Y                   Z               Mass
    ------------   -----------------  -----------------  -----------------  -----------------
      Gh(F)           0.000000000000     0.000000000000     0.000000000000    18.998403162730
      Gh(NA)          0.000000000000     1.939580000000     0.000000000000    22.989769282000
         NA           2.715412000000     0.000000000000     0.000000000000    22.989769282000

  Charge       = 1
  Multiplicity = 1
  Basis Set: AUG-CC-PVTZ
    Blend: AUG-CC-PVTZ
  Basis Set: (AUG-CC-PVTZ AUX)
    Blend: AUG-CC-PVTZ-JKFIT + DEF2-UNIVERSAL-JKFIT

    Orbital Energies [Eh]
    ---------------------

    Doubly Occupied:

       1A    -40.762902     2A     -3.074948     3A     -1.798217
       4A     -1.798121     5A     -1.798090

  @DF-RHF Final Energy:  -161.67603796814362

   => Energetics <=

    Nuclear Repulsion Energy =              0.0000000000000000
    One-Electron Energy =                -224.8875187118516976
    Two-Electron Energy =                  63.2114807437080799
    Total Energy =                       -161.6760379681436177
 Dipole X            :        -51.3144285           56.4452350            5.1308065
 Dipole Y            :          0.0001921            0.0000000            0.0001921
 Dipole Z            :          0.0000000            0.0000000            0.0000000
 Magnitude           :                                                    5.1308065

    SAPT Results
  --------------------------------------------------------------------------------------------------------
    Electrostatics                -36.15031286 [mEh]     -22.68466380 [kcal/mol]     -94.91263333 [kJ/mol]
      Elst10,r                    -36.02393409 [mEh]     -22.60535992 [kcal/mol]     -94.58082592 [kJ/mol]
      Elst12,r                     -0.12637877 [mEh]      -0.07930387 [kcal/mol]      -0.33180741 [kJ/mol]

    Exchange                        3.67385830 [mEh]       2.30538089 [kcal/mol]       9.64571363 [kJ/mol]
      Exch10                        2.59351658 [mEh]       1.62745622 [kcal/mol]       6.80927683 [kJ/mol]
      Exch10(S^2)                   2.59160839 [mEh]       1.62625882 [kcal/mol]       6.80426689 [kJ/mol]
      Exch11(S^2)                  -0.02427030 [mEh]      -0.01522984 [kcal/mol]      -0.06372165 [kJ/mol]
      Exch12(S^2)                   1.10461202 [mEh]       0.69315451 [kcal/mol]       2.90015845 [kJ/mol]

    Induction                      -7.79546190 [mEh]      -4.89172619 [kcal/mol]     -20.46698240 [kJ/mol]
      Ind20,r                     -10.08983194 [mEh]      -6.33146513 [kcal/mol]     -26.49085011 [kJ/mol]
      Ind22                        -3.22752007 [mEh]      -2.02529942 [kcal/mol]      -8.47385278 [kJ/mol]
      Exch-Ind20,r                  3.95485096 [mEh]       2.48170644 [kcal/mol]      10.38345976 [kJ/mol]
      Exch-Ind22                    1.26507170 [mEh]       0.79384448 [kcal/mol]       3.32144529 [kJ/mol]
      delta HF,r (2)                0.30196745 [mEh]       0.18948744 [kcal/mol]       0.79281544 [kJ/mol]

    Dispersion                     -0.26972433 [mEh]      -0.16925457 [kcal/mol]      -0.70816112 [kJ/mol]
      Disp20                       -0.21629762 [mEh]      -0.13572880 [kcal/mol]      -0.56788932 [kJ/mol]
      Disp21                       -0.02353901 [mEh]      -0.01477095 [kcal/mol]      -0.06180165 [kJ/mol]
      Disp22 (SDQ)                 -0.03164319 [mEh]      -0.01985640 [kcal/mol]      -0.08307918 [kJ/mol]
      Disp22 (T)                   -0.02324856 [mEh]      -0.01458869 [kcal/mol]      -0.06103910 [kJ/mol]
      Est. Disp22 (T)              -0.02738097 [mEh]      -0.01718182 [kcal/mol]      -0.07188874 [kJ/mol]
      Exch-Disp20                   0.02913646 [mEh]       0.01828341 [kcal/mol]       0.07649777 [kJ/mol]

  Total HF                        -39.26343104 [mEh]     -24.63817495 [kcal/mol]    -103.08612400 [kJ/mol]
  Total SAPT0                     -39.45059220 [mEh]     -24.75562035 [kcal/mol]    -103.57751555 [kJ/mol]
  Total SAPT2                     -40.45907762 [mEh]     -25.38845451 [kcal/mol]    -106.22529365 [kJ/mol]
  Total SAPT2+                    -40.54164079 [mEh]     -25.44026368 [kcal/mol]    -106.44206322 [kJ/mol]

  Special recipe for scaled SAPT0 (see Manual):
    Electrostatics sSAPT0         -36.02393409 [mEh]     -22.60535992 [kcal/mol]     -94.58082592 [kJ/mol]
    Exchange sSAPT0                 2.59351658 [mEh]       1.62745622 [kcal/mol]       6.80927683 [kJ/mol]
    Induction sSAPT0               -5.82427129 [mEh]      -3.65478541 [kcal/mol]     -15.29162217 [kJ/mol]
    Dispersion sSAPT0              -0.18709675 [mEh]      -0.11740498 [kcal/mol]      -0.49122245 [kJ/mol]
  Total sSAPT0                    -39.44178556 [mEh]     -24.75009410 [kcal/mol]    -103.55439371 [kJ/mol]
  --------------------------------------------------------------------------------------------------------

*** Psi4 exiting successfully. Buy a developer a beer!
