                               Psi4 1.9 release

  ==> Input File <==

--------------------------------------------------------------------------
MEMORY 60 GB

molecule dimer {
0 1
F      0.000000     0.000000     0.000000
Na     0.000000     1.939580     0.000000
--
1 1
Na     3.879160     0.000000     0.000000

units ang
no_reorient
no_com
symmetry c1
}

set {
basis        aug-cc-pVTZ
scf_type     df
}

energy("sapt2+")
--------------------------------------------------------------------------

  //              Dimer HF             //
    Molecular point group: c1
  Charge       = 1
  Multiplicity = 1
  Basis Set: AUG-CC-PVTZ
    Blend: AUG-CC-PVTZ
  Basis Set: (AUG-CC-PVTZ AUX)
    Blend: AUG-CC-PVTZ-JKFIT + DEF2-UNIVERSAL-JKFIT
  @DF-RHF Final Energy:  -423.06238699884818
    Total Energy =                       -423.0623869988481829
 Dipole X            :        -73.4795392           80.6360500            7.1565108
 Dipole Y            :        -36.9717588           40.3180250            3.3462661
 Dipole Z            :         -0.0000000            0.0000000           -0.0000000
 Magnitude           :                                                    7.9001990
  //            Monomer A HF           //
    Molecular point group: c1
  Multiplicity = 1
  Basis Set: AUG-CC-PVTZ
    Blend: AUG-CC-PVTZ
  Basis Set: (AUG-CC-PVTZ AUX)
    Blend: AUG-CC-PVTZ-JKFIT + DEF2-UNIVERSAL-JKFIT
  @DF-RHF Final Energy:  -261.37054541054840
    Total Energy =                       -261.3705454105484023
  //            Monomer B HF           //
    Molecular point group: c1

    Geometry (in Angstrom), charge = 1, multiplicity = 1:

       Center              X                  Y                   Z               Mass
    ------------   -----------------  -----------------  -----------------  -----------------
      Gh(F)           0.000000000000     0.000000000000     0.000000000000    18.998403162730
      Gh(NA)          0.000000000000     1.939580000000     0.000000000000    22.989769282000
         NA           3.879160000000     0.000000000000     0.000000000000    22.989769282000

  Charge       = 1
  Multiplicity = 1
  Basis Set: AUG-CC-PVTZ
    Blend: AUG-CC-PVTZ
  Basis Set: (AUG-CC-PVTZ AUX)
    Blend: AUG-CC-PVTZ-JKFIT + DEF2-UNIVERSAL-JKFIT

    Orbital Energies [Eh]
    ---------------------

    Doubly Occupied:

       1A    -40.763548     2A     -3.075250     3A     -1.798450
       4A     -1.798391     5A     -1.798388

  @DF-RHF Final Energy:  -161.67602844310713

   => Energetics <=

    Nuclear Repulsion Energy =              0.0000000000000000
    One-Electron Energy =                -224.8840020969840623
    Two-Electron Energy =                  63.2079736538769197
    Total Energy =                       -161.6760284431071568
 Dipole X            :        -73.3057229           80.6360500            7.3303271
 Dipole Y            :          0.0000788            0.0000000            0.0000788
 Dipole Z            :          0.0000000            0.0000000            0.0000000
 Magnitude           :                                                    7.3303271

    SAPT Results
  --------------------------------------------------------------------------------------------------------
    Electrostatics                -14.09526882 [mEh]      -8.84491472 [kcal/mol]     -37.00712319 [kJ/mol]
      Elst10,r                    -14.13192192 [mEh]      -8.86791488 [kcal/mol]     -37.10335588 [kJ/mol]
      Elst12,r                      0.03665310 [mEh]       0.02300017 [kcal/mol]       0.09623269 [kJ/mol]

    Exchange                        0.08104259 [mEh]       0.05085499 [kcal/mol]       0.21277729 [kJ/mol]
      Exch10                        0.04595638 [mEh]       0.02883806 [kcal/mol]       0.12065845 [kJ/mol]
      Exch10(S^2)                   0.04595567 [mEh]       0.02883762 [kcal/mol]       0.12065661 [kJ/mol]
      Exch11(S^2)                  -0.00027219 [mEh]      -0.00017080 [kcal/mol]      -0.00071464 [kJ/mol]
      Exch12(S^2)                   0.03535841 [mEh]       0.02218773 [kcal/mol]       0.09283348 [kJ/mol]

    Induction                      -2.17540445 [mEh]      -1.36508690 [kcal/mol]      -5.71152361 [kJ/mol]
      Ind20,r                      -1.68298274 [mEh]      -1.05608761 [kcal/mol]      -4.41867058 [kJ/mol]
      Ind22                        -0.47111568 [mEh]      -0.29562955 [kcal/mol]      -1.23691404 [kJ/mol]
      Exch-Ind20,r                  0.08177386 [mEh]       0.05131387 [kcal/mol]       0.21469724 [kJ/mol]
      Exch-Ind22                    0.02289088 [mEh]       0.01436424 [kcal/mol]       0.06009998 [kJ/mol]
      delta HF,r (2)               -0.12597077 [mEh]      -0.07904785 [kcal/mol]      -0.33073622 [kJ/mol]

    Dispersion                     -0.02885999 [mEh]      -0.01810991 [kcal/mol]      -0.07577188 [kJ/mol]
      Disp20                       -0.02067580 [mEh]      -0.01297426 [kcal/mol]      -0.05428430 [kJ/mol]
      Disp21                       -0.00236590 [mEh]      -0.00148462 [kcal/mol]      -0.00621166 [kJ/mol]
      Disp22 (SDQ)                 -0.00359519 [mEh]      -0.00225602 [kcal/mol]      -0.00943917 [kJ/mol]
      Disp22 (T)                   -0.00246716 [mEh]      -0.00154816 [kcal/mol]      -0.00647752 [kJ/mol]
      Est. Disp22 (T)              -0.00280233 [mEh]      -0.00175849 [kcal/mol]      -0.00735753 [kJ/mol]
      Exch-Disp20                   0.00057923 [mEh]       0.00036348 [kcal/mol]       0.00152078 [kJ/mol]

  Total HF                        -15.81314519 [mEh]      -9.92289842 [kcal/mol]     -41.51740698 [kJ/mol]
  Total SAPT0                     -15.83324176 [mEh]      -9.93550920 [kcal/mol]     -41.57017050 [kJ/mol]
  Total SAPT2                     -16.20972725 [mEh]     -10.17175741 [kcal/mol]     -42.55863302 [kJ/mol]
  Total SAPT2+                    -16.21849067 [mEh]     -10.17725654 [kcal/mol]     -42.58164138 [kJ/mol]

  Special recipe for scaled SAPT0 (see Manual):
    Electrostatics sSAPT0         -14.13192192 [mEh]      -8.86791488 [kcal/mol]     -37.10335588 [kJ/mol]
    Exchange sSAPT0                 0.04595638 [mEh]       0.02883806 [kcal/mol]       0.12065845 [kJ/mol]
    Induction sSAPT0               -1.72717591 [mEh]      -1.08381925 [kcal/mol]      -4.53469973 [kJ/mol]
    Dispersion sSAPT0              -0.02009654 [mEh]      -0.01261077 [kcal/mol]      -0.05276345 [kJ/mol]
  Total sSAPT0                    -15.83323799 [mEh]      -9.93550684 [kcal/mol]     -41.57016061 [kJ/mol]
  --------------------------------------------------------------------------------------------------------

*** Psi4 exiting successfully. Buy a developer a beer!
