                               Psi4 1.9 release

  ==> Input File <==

--------------------------------------------------------------------------
MEMORY 60 GB

molecule dimer {
0 1
F      0.000000     0.000000     0.000000
Na     0.000000     1.939580     0.000000
--
1 1
Na     2.133538     0.000000     0.000000

units ang
no_reorient
no_com
symmetry c1
}

set {
basis        aug-cc-pVTZ
scf_type     df
}

energy("sapt2+")
--------------------------------------------------------------------------

  //              Dimer HF             //
    Molecular point group: c1
  Charge       = 1
  Multiplicity = 1
  Basis Set: AUG-CC-PVTZ
    Blend: AUG-CC-PVTZ
  Basis Set: (AUG-CC-PVTZ AUX)
    Blend: AUG-CC-PVTZ-JKFIT + DEF2-UNIVERSAL-JKFIT
  @DF-RHF Final Energy:  -423.10141478878808
    Total Energy =                       -423.1014147887881336
 Dipole X            :        -40.6341557           44.3498275            3.7156718
 Dipole Y            :        -36.9558516           40.3180250            3.3621734
 Dipole Z            :         -0.0000000            0.0000000           -0.0000000
 Magnitude           :                                                    5.0110306
  //            Monomer A HF           //
    Molecular point group: c1
  Multiplicity = 1
  Basis Set: AUG-CC-PVTZ
    Blend: AUG-CC-PVTZ
  Basis Set: (AUG-CC-PVTZ AUX)
    Blend: AUG-CC-PVTZ-JKFIT + DEF2-UNIVERSAL-JKFIT
  @DF-RHF Final Energy:  -261.37068306703367
    Total Energy =                       -261.3706830670336672
  //            Monomer B HF           //
    Molecular point group: c1

    Geometry (in Angstrom), charge = 1, multiplicity = 1:

       Center              X                  Y                   Z               Mass
    ------------   -----------------  -----------------  -----------------  -----------------
      Gh(F)           0.000000000000     0.000000000000     0.000000000000    18.998403162730
      Gh(NA)          0.000000000000     1.939580000000     0.000000000000    22.989769282000
         NA           2.133538000000     0.000000000000     0.000000000000    22.989769282000

  Charge       = 1
  Multiplicity = 1
  Basis Set: AUG-CC-PVTZ
    Blend: AUG-CC-PVTZ
  Basis Set: (AUG-CC-PVTZ AUX)
    Blend: AUG-CC-PVTZ-JKFIT + DEF2-UNIVERSAL-JKFIT

    Orbital Energies [Eh]
    ---------------------

    Doubly Occupied:

       1A    -40.762527     2A     -3.074746     3A     -1.798014
       4A     -1.797966     5A     -1.797915

  @DF-RHF Final Energy:  -161.67604814693502

   => Energetics <=

    Nuclear Repulsion Energy =              0.0000000000000000
    One-Electron Energy =                -224.8897599884293754
    Two-Electron Energy =                  63.2137118414943444
    Total Energy =                       -161.6760481469350452
 Dipole X            :        -40.3185974           44.3498275            4.0312301
 Dipole Y            :          0.0002878            0.0000000            0.0002878
 Dipole Z            :         -0.0000000            0.0000000           -0.0000000
 Magnitude           :                                                    4.0312301

    SAPT Results
  --------------------------------------------------------------------------------------------------------
    Electrostatics                -68.46137577 [mEh]     -42.96016189 [kcal/mol]    -179.74531733 [kJ/mol]
      Elst10,r                    -67.73807257 [mEh]     -42.50628227 [kcal/mol]    -177.84628502 [kJ/mol]
      Elst12,r                     -0.72330321 [mEh]      -0.45387961 [kcal/mol]      -1.89903231 [kJ/mol]

    Exchange                       27.67161442 [mEh]      17.36420020 [kcal/mol]      72.65181365 [kJ/mol]
      Exch10                       22.56459197 [mEh]      14.15949523 [kcal/mol]      59.24332804 [kJ/mol]
      Exch10(S^2)                  22.43470477 [mEh]      14.07798978 [kcal/mol]      58.90230926 [kJ/mol]
      Exch11(S^2)                  -0.33098247 [mEh]      -0.20769464 [kcal/mol]      -0.86899436 [kJ/mol]
      Exch12(S^2)                   5.43800493 [mEh]       3.41239961 [kcal/mol]      14.27747996 [kJ/mol]

    Induction                     -12.74896199 [mEh]      -8.00009443 [kcal/mol]     -33.47239509 [kJ/mol]
      Ind20,r                     -40.33543399 [mEh]     -25.31086696 [kcal/mol]    -105.90066736 [kJ/mol]
      Ind22                       -11.24607948 [mEh]      -7.05702142 [kcal/mol]     -29.52657760 [kJ/mol]
      Exch-Ind20,r                 28.71884019 [mEh]      18.02134430 [kcal/mol]      75.40130454 [kJ/mol]
      Exch-Ind22                    8.00721171 [mEh]       5.02460120 [kcal/mol]      21.02293144 [kJ/mol]
      delta HF,r (2)                2.10649959 [mEh]       1.32184845 [kcal/mol]       5.53061390 [kJ/mol]

    Dispersion                     -0.94484005 [mEh]      -0.59289608 [kcal/mol]      -2.48067721 [kJ/mol]
      Disp20                       -0.91432741 [mEh]      -0.57374911 [kcal/mol]      -2.40056629 [kJ/mol]
      Disp21                       -0.05933302 [mEh]      -0.03723203 [kcal/mol]      -0.15577882 [kJ/mol]
      Disp22 (SDQ)                 -0.10552578 [mEh]      -0.06621843 [kcal/mol]      -0.27705790 [kJ/mol]
      Disp22 (T)                   -0.08362926 [mEh]      -0.05247815 [kcal/mol]      -0.21956859 [kJ/mol]
      Est. Disp22 (T)              -0.10575274 [mEh]      -0.06636085 [kcal/mol]      -0.27765379 [kJ/mol]
      Exch-Disp20                   0.24009890 [mEh]       0.15066434 [kcal/mol]       0.63037959 [kJ/mol]

  Total HF                        -54.68357482 [mEh]     -34.31446126 [kcal/mol]    -143.57170591 [kJ/mol]
  Total SAPT0                     -55.35780333 [mEh]     -34.73754603 [kcal/mol]    -145.34189261 [kJ/mol]
  Total SAPT2                     -54.21295185 [mEh]     -34.01914089 [kcal/mol]    -142.33608547 [kJ/mol]
  Total SAPT2+                    -54.48356339 [mEh]     -34.18895219 [kcal/mol]    -143.04657598 [kJ/mol]

  Special recipe for scaled SAPT0 (see Manual):
    Electrostatics sSAPT0         -67.73807257 [mEh]     -42.50628227 [kcal/mol]    -177.84628502 [kJ/mol]
    Exchange sSAPT0                22.56459197 [mEh]      14.15949523 [kcal/mol]      59.24332804 [kJ/mol]
    Induction sSAPT0               -9.00839193 [mEh]      -5.65285128 [kcal/mol]     -23.65152975 [kJ/mol]
    Dispersion sSAPT0              -0.67003411 [mEh]      -0.42045275 [kcal/mol]      -1.75917432 [kJ/mol]
  Total sSAPT0                    -54.85190664 [mEh]     -34.42009107 [kcal/mol]    -144.01366105 [kJ/mol]
  --------------------------------------------------------------------------------------------------------

*** Psi4 exiting successfully. Buy a developer a beer!
