                               Psi4 1.9 release

  ==> Input File <==

--------------------------------------------------------------------------
MEMORY 60 GB

molecule dimer {
0 1
F      0.000000     0.000000     0.000000
Na     0.000000     1.939580     0.000000
--
1 1
Na     2.909370     0.000000     0.000000

units ang
no_reorient
no_com
symmetry c1
}

set {
basis        aug-cc-pVTZ
scf_type     df
}

energy("sapt2+")
--------------------------------------------------------------------------

  //              Dimer HF             //
    Molecular point group: c1
  Charge       = 1
  Multiplicity = 1
  Basis Set: AUG-CC-PVTZ
    Blend: AUG-CC-PVTZ
  Basis Set: (AUG-CC-PVTZ AUX)
    Blend: AUG-CC-PVTZ-JKFIT + DEF2-UNIVERSAL-JKFIT
  @DF-RHF Final Energy:  -423.08033906687922
    Total Energy =                       -423.0803390668792190
 Dipole X            :        -55.2612244           60.4770375            5.2158131
 Dipole Y            :        -36.9683081           40.3180250            3.3497169
 Dipole Z            :         -0.0000000            0.0000000           -0.0000000
 Magnitude           :                                                    6.1988152
  //            Monomer A HF           //
    Molecular point group: c1
  Multiplicity = 1
  Basis Set: AUG-CC-PVTZ
    Blend: AUG-CC-PVTZ
  Basis Set: (AUG-CC-PVTZ AUX)
    Blend: AUG-CC-PVTZ-JKFIT + DEF2-UNIVERSAL-JKFIT
  @DF-RHF Final Energy:  -261.37057376606367
    Total Energy =                       -261.3705737660636714
  //            Monomer B HF           //
    Molecular point group: c1

    Geometry (in Angstrom), charge = 1, multiplicity = 1:

       Center              X                  Y                   Z               Mass
    ------------   -----------------  -----------------  -----------------  -----------------
      Gh(F)           0.000000000000     0.000000000000     0.000000000000    18.998403162730
      Gh(NA)          0.000000000000     1.939580000000     0.000000000000    22.989769282000
         NA           2.909370000000     0.000000000000     0.000000000000    22.989769282000

  Charge       = 1
  Multiplicity = 1
  Basis Set: AUG-CC-PVTZ
    Blend: AUG-CC-PVTZ
  Basis Set: (AUG-CC-PVTZ AUX)
    Blend: AUG-CC-PVTZ-JKFIT + DEF2-UNIVERSAL-JKFIT

    Orbital Energies [Eh]
    ---------------------

    Doubly Occupied:

       1A    -40.763009     2A     -3.075001     3A     -1.798270
       4A     -1.798164     5A     -1.798137

  @DF-RHF Final Energy:  -161.67603588769663

   => Energetics <=

    Nuclear Repulsion Energy =              0.0000000000000000
    One-Electron Energy =                -224.8869112268511685
    Two-Electron Energy =                  63.2108753391545477
    Total Energy =                       -161.6760358876966279
 Dipole X            :        -54.9796804           60.4770375            5.4973571
 Dipole Y            :          0.0001600            0.0000000            0.0001600
 Dipole Z            :         -0.0000000            0.0000000           -0.0000000
 Magnitude           :                                                    5.4973571

    SAPT Results
  --------------------------------------------------------------------------------------------------------
    Electrostatics                -30.22868769 [mEh]     -18.96878791 [kcal/mol]     -79.36540860 [kJ/mol]
      Elst10,r                    -30.17733463 [mEh]     -18.93656337 [kcal/mol]     -79.23058115 [kJ/mol]
      Elst12,r                     -0.05135306 [mEh]      -0.03222453 [kcal/mol]      -0.13482745 [kJ/mol]

    Exchange                        1.90721953 [mEh]       1.19679832 [kcal/mol]       5.00740419 [kJ/mol]
      Exch10                        1.28874750 [mEh]       0.80870126 [kcal/mol]       3.38360609 [kJ/mol]
      Exch10(S^2)                   1.28826446 [mEh]       0.80839815 [kcal/mol]       3.38233788 [kJ/mol]
      Exch11(S^2)                  -0.01068180 [mEh]      -0.00670293 [kcal/mol]      -0.02804505 [kJ/mol]
      Exch12(S^2)                   0.62915383 [mEh]       0.39479999 [kcal/mol]       1.65184316 [kJ/mol]

    Induction                      -6.39140136 [mEh]      -4.01066491 [kcal/mol]     -16.78062197 [kJ/mol]
      Ind20,r                      -6.91754431 [mEh]      -4.34082459 [kcal/mol]     -18.16201007 [kJ/mol]
      Ind22                        -2.19991030 [mEh]      -1.38046456 [kcal/mol]      -5.77586371 [kJ/mol]
      Exch-Ind20,r                  2.04181194 [mEh]       1.28125633 [kcal/mol]       5.36077650 [kJ/mol]
      Exch-Ind22                    0.64933493 [mEh]       0.40746382 [kcal/mol]       1.70482861 [kJ/mol]
      delta HF,r (2)                0.03490638 [mEh]       0.02190409 [kcal/mol]       0.09164669 [kJ/mol]

    Dispersion                     -0.18155749 [mEh]      -0.11392904 [kcal/mol]      -0.47667912 [kJ/mol]
      Disp20                       -0.14046127 [mEh]      -0.08814077 [kcal/mol]      -0.36878100 [kJ/mol]
      Disp21                       -0.01598098 [mEh]      -0.01002822 [kcal/mol]      -0.04195806 [kJ/mol]
      Disp22 (SDQ)                 -0.02183295 [mEh]      -0.01370038 [kcal/mol]      -0.05732240 [kJ/mol]
      Disp22 (T)                   -0.01588499 [mEh]      -0.00996798 [kcal/mol]      -0.04170604 [kJ/mol]
      Est. Disp22 (T)              -0.01830739 [mEh]      -0.01148806 [kcal/mol]      -0.04806604 [kJ/mol]
      Exch-Disp20                   0.01502509 [mEh]       0.00942839 [kcal/mol]       0.03944837 [kJ/mol]

  Total HF                        -33.72941312 [mEh]     -21.16552628 [kcal/mol]     -88.55656194 [kJ/mol]
  Total SAPT0                     -33.85484929 [mEh]     -21.24423866 [kcal/mol]     -88.88589457 [kJ/mol]
  Total SAPT2                     -34.83830570 [mEh]     -21.86136688 [kcal/mol]     -91.46795901 [kJ/mol]
  Total SAPT2+                    -34.89442701 [mEh]     -21.89658353 [kcal/mol]     -91.61530550 [kJ/mol]

  Special recipe for scaled SAPT0 (see Manual):
    Electrostatics sSAPT0         -30.17733463 [mEh]     -18.93656337 [kcal/mol]     -79.23058115 [kJ/mol]
    Exchange sSAPT0                 1.28874750 [mEh]       0.80870126 [kcal/mol]       3.38360609 [kJ/mol]
    Induction sSAPT0               -4.83852839 [mEh]      -3.03622241 [kcal/mol]     -12.70355455 [kJ/mol]
    Dispersion sSAPT0              -0.12541927 [mEh]      -0.07870178 [kcal/mol]      -0.32928824 [kJ/mol]
  Total sSAPT0                    -33.85253479 [mEh]     -21.24278629 [kcal/mol]     -88.87981785 [kJ/mol]
  --------------------------------------------------------------------------------------------------------

*** Psi4 exiting successfully. Buy a developer a beer!
