                               Psi4 1.9 release

  ==> Input File <==

--------------------------------------------------------------------------
MEMORY 60 GB

molecule dimer {
0 1
F      0.000000     0.000000     0.000000
Na     0.000000     1.939580     0.000000
--
1 1
Na     2.327496     0.000000     0.000000

units ang
no_reorient
no_com
symmetry c1
}

set {
basis        aug-cc-pVTZ
scf_type     df
}

energy("sapt2+")
--------------------------------------------------------------------------

  //              Dimer HF             //
    Molecular point group: c1
  Charge       = 1
  Multiplicity = 1
  Basis Set: AUG-CC-PVTZ
    Blend: AUG-CC-PVTZ
  Basis Set: (AUG-CC-PVTZ AUX)
    Blend: AUG-CC-PVTZ-JKFIT + DEF2-UNIVERSAL-JKFIT
  @DF-RHF Final Energy:  -423.09768434105985
    Total Energy =                       -423.0976843410598462
 Dipole X            :        -44.3043256           48.3816300            4.0773044
 Dipole Y            :        -36.9602747           40.3180250            3.3577503
 Dipole Z            :          0.0000000            0.0000000            0.0000000
 Magnitude           :                                                    5.2819407
  //            Monomer A HF           //
    Molecular point group: c1
  Multiplicity = 1
  Basis Set: AUG-CC-PVTZ
    Blend: AUG-CC-PVTZ
  Basis Set: (AUG-CC-PVTZ AUX)
    Blend: AUG-CC-PVTZ-JKFIT + DEF2-UNIVERSAL-JKFIT
  @DF-RHF Final Energy:  -261.37066186163310
    Total Energy =                       -261.3706618616331525
  //            Monomer B HF           //
    Molecular point group: c1

    Geometry (in Angstrom), charge = 1, multiplicity = 1:

       Center              X                  Y                   Z               Mass
    ------------   -----------------  -----------------  -----------------  -----------------
      Gh(F)           0.000000000000     0.000000000000     0.000000000000    18.998403162730
      Gh(NA)          0.000000000000     1.939580000000     0.000000000000    22.989769282000
         NA           2.327496000000     0.000000000000     0.000000000000    22.989769282000

  Charge       = 1
  Multiplicity = 1
  Basis Set: AUG-CC-PVTZ
    Blend: AUG-CC-PVTZ
  Basis Set: (AUG-CC-PVTZ AUX)
    Blend: AUG-CC-PVTZ-JKFIT + DEF2-UNIVERSAL-JKFIT

    Orbital Energies [Eh]
    ---------------------

    Doubly Occupied:

       1A    -40.762697     2A     -3.074832     3A     -1.798096
       4A     -1.798035     5A     -1.797993

  @DF-RHF Final Energy:  -161.67604510341644

   => Energetics <=

    Nuclear Repulsion Energy =              0.0000000000000000
    One-Electron Energy =                -224.8887844207248747
    Two-Electron Energy =                  63.2127393173084613
    Total Energy =                       -161.6760451034164134
 Dipole X            :        -43.9838695           48.3816300            4.3977605
 Dipole Y            :          0.0002550            0.0000000            0.0002550
 Dipole Z            :         -0.0000000            0.0000000           -0.0000000
 Magnitude           :                                                    4.3977605

    SAPT Results
  --------------------------------------------------------------------------------------------------------
    Electrostatics                -54.13413581 [mEh]     -33.96968308 [kcal/mol]    -142.12915399 [kJ/mol]
      Elst10,r                    -53.68585069 [mEh]     -33.68837992 [kcal/mol]    -140.95218157 [kJ/mol]
      Elst12,r                     -0.44828512 [mEh]      -0.28130316 [kcal/mol]      -1.17697242 [kJ/mol]

    Exchange                       13.98234813 [mEh]       8.77405592 [kcal/mol]      36.71064996 [kJ/mol]
      Exch10                       10.85329303 [mEh]       6.81054420 [kcal/mol]      28.49531692 [kJ/mol]
      Exch10(S^2)                  10.82184897 [mEh]       6.79081275 [kcal/mol]      28.41276056 [kJ/mol]
      Exch11(S^2)                  -0.13604192 [mEh]      -0.08536760 [kcal/mol]      -0.35717802 [kJ/mol]
      Exch12(S^2)                   3.26509703 [mEh]       2.04887932 [kcal/mol]       8.57251106 [kJ/mol]

    Induction                     -11.00607171 [mEh]      -6.90641427 [kcal/mol]     -28.89643729 [kJ/mol]
      Ind20,r                     -24.32128584 [mEh]     -15.26183728 [kcal/mol]     -63.85552719 [kJ/mol]
      Ind22                        -7.33305345 [mEh]      -4.60156051 [kcal/mol]     -19.25292919 [kJ/mol]
      Exch-Ind20,r                 14.83146537 [mEh]       9.30688503 [kcal/mol]      38.94000698 [kJ/mol]
      Exch-Ind22                    4.47180010 [mEh]       2.80609692 [kcal/mol]      11.74070953 [kJ/mol]
      delta HF,r (2)                1.34500212 [mEh]       0.84400157 [kcal/mol]       3.53130258 [kJ/mol]

    Dispersion                     -0.60367153 [mEh]      -0.37880960 [kcal/mol]      -1.58493938 [kJ/mol]
      Disp20                       -0.54025101 [mEh]      -0.33901263 [kcal/mol]      -1.41842882 [kJ/mol]
      Disp21                       -0.04659357 [mEh]      -0.02923791 [kcal/mol]      -0.12233140 [kJ/mol]
      Disp22 (SDQ)                 -0.06796197 [mEh]      -0.04264678 [kcal/mol]      -0.17843414 [kJ/mol]
      Disp22 (T)                   -0.05061188 [mEh]      -0.03175943 [kcal/mol]      -0.13288147 [kJ/mol]
      Est. Disp22 (T)              -0.06397199 [mEh]      -0.04014303 [kcal/mol]      -0.16795845 [kJ/mol]
      Exch-Disp20                   0.11510702 [mEh]       0.07223074 [kcal/mol]       0.30221343 [kJ/mol]

  Total HF                        -50.97737601 [mEh]     -31.98878639 [kcal/mol]    -133.84108228 [kJ/mol]
  Total SAPT0                     -51.40252000 [mEh]     -32.25556828 [kcal/mol]    -134.95729767 [kJ/mol]
  Total SAPT2                     -51.58300338 [mEh]     -32.36882330 [kcal/mol]    -135.43115670 [kJ/mol]
  Total SAPT2+                    -51.76153091 [mEh]     -32.48085102 [kcal/mol]    -135.89988068 [kJ/mol]

  Special recipe for scaled SAPT0 (see Manual):
    Electrostatics sSAPT0         -53.68585069 [mEh]     -33.68837992 [kcal/mol]    -140.95218157 [kJ/mol]
    Exchange sSAPT0                10.85329303 [mEh]       6.81054420 [kcal/mol]      28.49531692 [kJ/mol]
    Induction sSAPT0               -8.01515904 [mEh]      -5.02958823 [kcal/mol]     -21.04379715 [kJ/mol]
    Dispersion sSAPT0              -0.42413771 [mEh]      -0.26615043 [kcal/mol]      -1.11357339 [kJ/mol]
  Total sSAPT0                    -51.27185440 [mEh]     -32.17357437 [kcal/mol]    -134.61423518 [kJ/mol]
  --------------------------------------------------------------------------------------------------------

*** Psi4 exiting successfully. Buy a developer a beer!
