                               Psi4 1.9 release

  ==> Input File <==

--------------------------------------------------------------------------
MEMORY 60 GB

molecule dimer {
0 1
F      0.000000     0.000000     0.000000
Na     0.000000     1.939580     0.000000
--
1 1
Na     2.521454     0.000000     0.000000

units ang
no_reorient
no_com
symmetry c1
}

set {
basis        aug-cc-pVTZ
scf_type     df
}

energy("sapt2+")
--------------------------------------------------------------------------

  //              Dimer HF             //
    Molecular point group: c1
  Charge       = 1
  Multiplicity = 1
  Basis Set: AUG-CC-PVTZ
    Blend: AUG-CC-PVTZ
  Basis Set: (AUG-CC-PVTZ AUX)
    Blend: AUG-CC-PVTZ-JKFIT + DEF2-UNIVERSAL-JKFIT
  @DF-RHF Final Energy:  -423.09191101830299
    Total Energy =                       -423.0919110183029943
 Dipole X            :        -47.9637021           52.4134325            4.4497304
 Dipole Y            :        -36.9637509           40.3180250            3.3542741
 Dipole Z            :         -0.0000000            0.0000000           -0.0000000
 Magnitude           :                                                    5.5723653
  //            Monomer A HF           //
    Molecular point group: c1
  Multiplicity = 1
  Basis Set: AUG-CC-PVTZ
    Blend: AUG-CC-PVTZ
  Basis Set: (AUG-CC-PVTZ AUX)
    Blend: AUG-CC-PVTZ-JKFIT + DEF2-UNIVERSAL-JKFIT
  @DF-RHF Final Energy:  -261.37062498743387
    Total Energy =                       -261.3706249874338710
  //            Monomer B HF           //
    Molecular point group: c1

    Geometry (in Angstrom), charge = 1, multiplicity = 1:

       Center              X                  Y                   Z               Mass
    ------------   -----------------  -----------------  -----------------  -----------------
      Gh(F)           0.000000000000     0.000000000000     0.000000000000    18.998403162730
      Gh(NA)          0.000000000000     1.939580000000     0.000000000000    22.989769282000
         NA           2.521454000000     0.000000000000     0.000000000000    22.989769282000

  Charge       = 1
  Multiplicity = 1
  Basis Set: AUG-CC-PVTZ
    Blend: AUG-CC-PVTZ
  Basis Set: (AUG-CC-PVTZ AUX)
    Blend: AUG-CC-PVTZ-JKFIT + DEF2-UNIVERSAL-JKFIT

    Orbital Energies [Eh]
    ---------------------

    Doubly Occupied:

       1A    -40.762821     2A     -3.074900     3A     -1.798165
       4A     -1.798087     5A     -1.798052

  @DF-RHF Final Energy:  -161.67604140167700

   => Energetics <=

    Nuclear Repulsion Energy =              0.0000000000000000
    One-Electron Energy =                -224.8880318790921535
    Two-Electron Energy =                  63.2119904774151564
    Total Energy =                       -161.6760414016769971
 Dipole X            :        -47.6491404           52.4134325            4.7642920
 Dipole Y            :          0.0002249            0.0000000            0.0002249
 Dipole Z            :          0.0000000            0.0000000            0.0000000
 Magnitude           :                                                    4.7642920

    SAPT Results
  --------------------------------------------------------------------------------------------------------
    Electrostatics                -43.83608736 [mEh]     -27.50756011 [kcal/mol]    -115.09163150 [kJ/mol]
      Elst10,r                    -43.58372056 [mEh]     -27.34919756 [kcal/mol]    -114.42904257 [kJ/mol]
      Elst12,r                     -0.25236679 [mEh]      -0.15836255 [kcal/mol]      -0.66258892 [kJ/mol]

    Exchange                        7.13471934 [mEh]       4.47710398 [kcal/mol]      18.73220304 [kJ/mol]
      Exch10                        5.27583060 [mEh]       3.31063368 [kcal/mol]      13.85169133 [kJ/mol]
      Exch10(S^2)                   5.26814620 [mEh]       3.30581165 [kcal/mol]      13.83151594 [kJ/mol]
      Exch11(S^2)                  -0.05678896 [mEh]      -0.03563561 [kcal/mol]      -0.14909941 [kJ/mol]
      Exch12(S^2)                   1.91567770 [mEh]       1.20210591 [kcal/mol]       5.02961111 [kJ/mol]

    Induction                      -9.35344649 [mEh]      -5.86937628 [kcal/mol]     -24.55747037 [kJ/mol]
      Ind20,r                     -15.33331665 [mEh]      -9.62180146 [kcal/mol]     -40.25761732 [kJ/mol]
      Ind22                        -4.82986023 [mEh]      -3.03078305 [kcal/mol]     -12.68079628 [kJ/mol]
      Exch-Ind20,r                  7.66101644 [mEh]       4.80736040 [kcal/mol]      20.11399590 [kJ/mol]
      Exch-Ind22                    2.41315297 [mEh]       1.51427635 [kcal/mol]       6.33573225 [kJ/mol]
      delta HF,r (2)                0.73556098 [mEh]       0.46157148 [kcal/mol]       1.93121507 [kJ/mol]

    Dispersion                     -0.40143500 [mEh]      -0.25190427 [kcal/mol]      -1.05396745 [kJ/mol]
      Disp20                       -0.33754714 [mEh]      -0.21181403 [kcal/mol]      -0.88622990 [kJ/mol]
      Disp21                       -0.03383996 [mEh]      -0.02123490 [kcal/mol]      -0.08884681 [kJ/mol]
      Disp22 (SDQ)                 -0.04600200 [mEh]      -0.02886669 [kcal/mol]      -0.12077823 [kJ/mol]
      Disp22 (T)                   -0.03390572 [mEh]      -0.02127616 [kcal/mol]      -0.08901945 [kJ/mol]
      Est. Disp22 (T)              -0.04129156 [mEh]      -0.02591084 [kcal/mol]      -0.10841097 [kJ/mol]
      Exch-Disp20                   0.05724566 [mEh]       0.03592220 [kcal/mol]       0.15029847 [kJ/mol]

  Total HF                        -45.24462919 [mEh]     -28.39143346 [kcal/mol]    -118.78975758 [kJ/mol]
  Total SAPT0                     -45.52493067 [mEh]     -28.56732529 [kcal/mol]    -119.52568902 [kJ/mol]
  Total SAPT2                     -46.33511599 [mEh]     -29.07572425 [kcal/mol]    -121.65283026 [kJ/mol]
  Total SAPT2+                    -46.45624950 [mEh]     -29.15173668 [kcal/mol]    -121.97086627 [kJ/mol]

  Special recipe for scaled SAPT0 (see Manual):
    Electrostatics sSAPT0         -43.58372056 [mEh]     -27.34919756 [kcal/mol]    -114.42904257 [kJ/mol]
    Exchange sSAPT0                 5.27583060 [mEh]       3.31063368 [kcal/mol]      13.85169133 [kJ/mol]
    Induction sSAPT0               -6.90316598 [mEh]      -4.33180205 [kcal/mol]     -18.12425980 [kJ/mol]
    Dispersion sSAPT0              -0.28005061 [mEh]      -0.17573441 [kcal/mol]      -0.73527278 [kJ/mol]
  Total sSAPT0                    -45.49110656 [mEh]     -28.54610034 [kcal/mol]    -119.43688381 [kJ/mol]
  --------------------------------------------------------------------------------------------------------

*** Psi4 exiting successfully. Buy a developer a beer!
