                               Psi4 1.9 release

  ==> Input File <==

--------------------------------------------------------------------------
MEMORY 60 GB

molecule dimer {
0 1
F      0.000000     0.000000     0.000000
Na     0.000000     1.939580     0.000000
--
1 1
Na     1.939580     0.000000     0.000000

units ang
no_reorient
no_com
symmetry c1
}

set {
basis        aug-cc-pVTZ
scf_type     df
}

energy("sapt2+")
--------------------------------------------------------------------------

  //              Dimer HF             //
    Molecular point group: c1
  Charge       = 1
  Multiplicity = 1
  Basis Set: AUG-CC-PVTZ
    Blend: AUG-CC-PVTZ
  Basis Set: (AUG-CC-PVTZ AUX)
    Blend: AUG-CC-PVTZ-JKFIT + DEF2-UNIVERSAL-JKFIT
  @DF-RHF Final Energy:  -423.09874838209589
    Total Energy =                       -423.0987483820958914
 Dipole X            :        -36.9503539           40.3180250            3.3676711
 Dipole Y            :        -36.9503539           40.3180250            3.3676711
 Dipole Z            :         -0.0000000            0.0000000           -0.0000000
 Magnitude           :                                                    4.7626062
  //            Monomer A HF           //
    Molecular point group: c1
  Multiplicity = 1
  Basis Set: AUG-CC-PVTZ
    Blend: AUG-CC-PVTZ
  Basis Set: (AUG-CC-PVTZ AUX)
    Blend: AUG-CC-PVTZ-JKFIT + DEF2-UNIVERSAL-JKFIT
  @DF-RHF Final Energy:  -261.37068436247375
    Total Energy =                       -261.3706843624737530
  //            Monomer B HF           //
    Molecular point group: c1

    Geometry (in Angstrom), charge = 1, multiplicity = 1:

       Center              X                  Y                   Z               Mass
    ------------   -----------------  -----------------  -----------------  -----------------
      Gh(F)           0.000000000000     0.000000000000     0.000000000000    18.998403162730
      Gh(NA)          0.000000000000     1.939580000000     0.000000000000    22.989769282000
         NA           1.939580000000     0.000000000000     0.000000000000    22.989769282000

  Charge       = 1
  Multiplicity = 1
  Basis Set: AUG-CC-PVTZ
    Blend: AUG-CC-PVTZ
  Basis Set: (AUG-CC-PVTZ AUX)
    Blend: AUG-CC-PVTZ-JKFIT + DEF2-UNIVERSAL-JKFIT

    Orbital Energies [Eh]
    ---------------------

    Doubly Occupied:

       1A    -40.762326     2A     -3.074655     3A     -1.797929
       4A     -1.797891     5A     -1.797835

  @DF-RHF Final Energy:  -161.67605226061588

   => Energetics <=

    Nuclear Repulsion Energy =              0.0000000000000000
    One-Electron Energy =                -224.8908322226755558
    Two-Electron Energy =                  63.2147799620596871
    Total Energy =                       -161.6760522606158759
 Dipole X            :        -36.6532629           40.3180250            3.6647621
 Dipole Y            :          0.0003073            0.0000000            0.0003073
 Dipole Z            :          0.0000000            0.0000000            0.0000000
 Magnitude           :                                                    3.6647621

    SAPT Results
  --------------------------------------------------------------------------------------------------------
    Electrostatics                -89.18968309 [mEh]     -55.96737110 [kcal/mol]    -234.16748069 [kJ/mol]
      Elst10,r                    -88.09714441 [mEh]     -55.28179273 [kcal/mol]    -231.29902078 [kJ/mol]
      Elst12,r                     -1.09253868 [mEh]      -0.68557837 [kcal/mol]      -2.86845991 [kJ/mol]

    Exchange                       55.26150773 [mEh]      34.67711963 [kcal/mol]     145.08906855 [kJ/mol]
      Exch10                       47.28613295 [mEh]      29.67249640 [kcal/mol]     124.14972495 [kJ/mol]
      Exch10(S^2)                  46.75126937 [mEh]      29.33686444 [kcal/mol]     122.74544082 [kJ/mol]
      Exch11(S^2)                  -0.81012506 [mEh]      -0.50836115 [kcal/mol]      -2.12698306 [kJ/mol]
      Exch12(S^2)                   8.78549984 [mEh]       5.51298438 [kcal/mol]      23.06632666 [kJ/mol]

    Induction                     -14.75578909 [mEh]      -9.25939745 [kcal/mol]     -38.74131892 [kJ/mol]
      Ind20,r                     -70.01015547 [mEh]     -43.93203582 [kcal/mol]    -183.81163787 [kJ/mol]
      Ind22                       -17.33835627 [mEh]     -10.87998282 [kcal/mol]     -45.52184811 [kJ/mol]
      Exch-Ind20,r                 55.65533386 [mEh]      34.92424927 [kcal/mol]     146.12305893 [kJ/mol]
      Exch-Ind22                   13.78331472 [mEh]       8.64916057 [kcal/mol]      36.18808782 [kJ/mol]
      delta HF,r (2)                3.15407406 [mEh]       1.97921136 [kcal/mol]       8.28102031 [kJ/mol]

    Dispersion                     -1.56742560 [mEh]      -0.98357441 [kcal/mol]      -4.11527535 [kJ/mol]
      Disp20                       -1.66763958 [mEh]      -1.04645964 [kcal/mol]      -4.37838711 [kJ/mol]
      Disp21                       -0.05958703 [mEh]      -0.03739142 [kcal/mol]      -0.15644572 [kJ/mol]
      Disp22 (SDQ)                 -0.17856698 [mEh]      -0.11205247 [kcal/mol]      -0.46882754 [kJ/mol]
      Disp22 (T)                   -0.14384413 [mEh]      -0.09026356 [kcal/mol]      -0.37766272 [kJ/mol]
      Est. Disp22 (T)              -0.18537742 [mEh]      -0.11632608 [kcal/mol]      -0.48670834 [kJ/mol]
      Exch-Disp20                   0.52374540 [mEh]       0.32865520 [kcal/mol]       1.37509337 [kJ/mol]

  Total HF                        -52.01175901 [mEh]     -32.63787152 [kcal/mol]    -136.55685446 [kJ/mol]
  Total SAPT0                     -53.15565318 [mEh]     -33.35567596 [kcal/mol]    -139.56014821 [kJ/mol]
  Total SAPT2                     -49.82785863 [mEh]     -31.26745335 [kcal/mol]    -130.82302481 [kJ/mol]
  Total SAPT2+                    -50.25139005 [mEh]     -31.53322333 [kcal/mol]    -131.93500640 [kJ/mol]

  Special recipe for scaled SAPT0 (see Manual):
    Electrostatics sSAPT0         -88.09714441 [mEh]     -55.28179273 [kcal/mol]    -231.29902078 [kJ/mol]
    Exchange sSAPT0                47.28613295 [mEh]      29.67249640 [kcal/mol]     124.14972495 [kJ/mol]
    Induction sSAPT0               -9.26861556 [mEh]      -5.81614407 [kcal/mol]     -24.33474680 [kJ/mol]
    Dispersion sSAPT0              -1.12571182 [mEh]      -0.70639483 [kcal/mol]      -2.95555597 [kJ/mol]
  Total sSAPT0                    -51.20533884 [mEh]     -32.13183523 [kcal/mol]    -134.43959860 [kJ/mol]
  --------------------------------------------------------------------------------------------------------

*** Psi4 exiting successfully. Buy a developer a beer!
