                               Psi4 1.9 release

  ==> Input File <==

--------------------------------------------------------------------------
MEMORY 60 GB

molecule dimer {
0 1
Na     0.000000     0.000000     0.000000
F      0.000000     1.939580     0.000000
--
-1 1
F      2.327496     0.000000     0.000000

units ang
no_reorient
no_com
symmetry c1
}

set {
basis        aug-cc-pVTZ
scf_type     df
}

energy("sapt2+")
--------------------------------------------------------------------------

  //              Dimer HF             //
    Molecular point group: c1
  Charge       = -1
  Multiplicity = 1
  Basis Set: AUG-CC-PVTZ
    Blend: AUG-CC-PVTZ
  Basis Set: (AUG-CC-PVTZ AUX)
    Blend: AUG-CC-PVTZ-JKFIT + DEF2-UNIVERSAL-JKFIT
  @DF-RHF Final Energy:  -360.86655874161829
    Total Energy =                       -360.8665587416182916
 Dipole X            :        -43.6450256           39.5849700           -4.0600557
 Dipole Y            :        -36.3134669           32.9874750           -3.3259920
 Dipole Z            :          0.0000000            0.0000000            0.0000000
 Magnitude           :                                                    5.2484545
  //            Monomer A HF           //
    Molecular point group: c1
  Multiplicity = 1
  Basis Set: AUG-CC-PVTZ
    Blend: AUG-CC-PVTZ
  Basis Set: (AUG-CC-PVTZ AUX)
    Blend: AUG-CC-PVTZ-JKFIT + DEF2-UNIVERSAL-JKFIT
  @DF-RHF Final Energy:  -261.37056147070695
    Total Energy =                       -261.3705614707068889
  //            Monomer B HF           //
    Molecular point group: c1

    Geometry (in Angstrom), charge = -1, multiplicity = 1:

       Center              X                  Y                   Z               Mass
    ------------   -----------------  -----------------  -----------------  -----------------
      Gh(NA)          0.000000000000     0.000000000000     0.000000000000    22.989769282000
      Gh(F)           0.000000000000     1.939580000000     0.000000000000    18.998403162730
         F            2.327496000000     0.000000000000     0.000000000000    18.998403162730

  Charge       = -1
  Multiplicity = 1
  Basis Set: AUG-CC-PVTZ
    Blend: AUG-CC-PVTZ
  Basis Set: (AUG-CC-PVTZ AUX)
    Blend: AUG-CC-PVTZ-JKFIT + DEF2-UNIVERSAL-JKFIT

    Orbital Energies [Eh]
    ---------------------

    Doubly Occupied:

       1A    -25.833831     2A     -1.076086     3A     -0.181061
       4A     -0.181004     5A     -0.181001

  @DF-RHF Final Energy:   -99.45086630899515

   => Energetics <=

    Nuclear Repulsion Energy =              0.0000000000000000
    One-Electron Energy =                -143.9957665855697542
    Two-Electron Energy =                  44.5449002765746158
    Total Energy =                        -99.4508663089951312
 Dipole X            :        -43.9843137           39.5849700           -4.3993437
 Dipole Y            :         -0.0001751            0.0000000           -0.0001751
 Dipole Z            :         -0.0000000            0.0000000           -0.0000000
 Magnitude           :                                                    4.3993437

    SAPT Results
  --------------------------------------------------------------------------------------------------------
    Electrostatics                -53.15776204 [mEh]     -33.35699929 [kcal/mol]    -139.56568502 [kJ/mol]
      Elst10,r                    -51.77001746 [mEh]     -32.48617641 [kcal/mol]    -135.92216211 [kJ/mol]
      Elst12,r                     -1.38774459 [mEh]      -0.87082287 [kcal/mol]      -3.64352291 [kJ/mol]

    Exchange                       20.89495266 [mEh]      13.11178075 [kcal/mol]      54.85969064 [kJ/mol]
      Exch10                       15.02442280 [mEh]       9.42796765 [kcal/mol]      39.44661663 [kJ/mol]
      Exch10(S^2)                  14.95491996 [mEh]       9.38435396 [kcal/mol]      39.26413695 [kJ/mol]
      Exch11(S^2)                  -0.32741833 [mEh]      -0.20545810 [kcal/mol]      -0.85963670 [kJ/mol]
      Exch12(S^2)                   6.19794818 [mEh]       3.88927120 [kcal/mol]      16.27271071 [kJ/mol]

    Induction                     -11.65758934 [mEh]      -7.31524775 [kcal/mol]     -30.60699660 [kJ/mol]
      Ind20,r                     -27.83083600 [mEh]     -17.46411325 [kcal/mol]     -73.06984985 [kJ/mol]
      Ind22                       -10.63066998 [mEh]      -6.67084612 [kcal/mol]     -27.91082018 [kJ/mol]
      Exch-Ind20,r                 19.26423801 [mEh]      12.08849186 [kcal/mol]      50.57824993 [kJ/mol]
      Exch-Ind22                    7.35844790 [mEh]       4.61749577 [kcal/mol]      19.31960230 [kJ/mol]
      delta HF,r (2)                0.18123073 [mEh]       0.11372400 [kcal/mol]       0.47582122 [kJ/mol]

    Dispersion                     -2.95589697 [mEh]      -1.85485335 [kcal/mol]      -7.76070643 [kJ/mol]
      Disp20                       -2.37599504 [mEh]      -1.49095940 [kcal/mol]      -6.23817412 [kJ/mol]
      Disp21                       -0.08116182 [mEh]      -0.05092981 [kcal/mol]      -0.21309032 [kJ/mol]
      Disp22 (SDQ)                 -0.58178282 [mEh]      -0.36507423 [kcal/mol]      -1.52747058 [kJ/mol]
      Disp22 (T)                   -0.47386325 [mEh]      -0.29735368 [kcal/mol]      -1.24412780 [kJ/mol]
      Est. Disp22 (T)              -0.57960447 [mEh]      -0.36370730 [kcal/mol]      -1.52175132 [kJ/mol]
      Exch-Disp20                   0.66264718 [mEh]       0.41581738 [kcal/mol]       1.73977993 [kJ/mol]

  Total HF                        -45.13096192 [mEh]     -28.32010616 [kcal/mol]    -118.49132419 [kJ/mol]
  Total SAPT0                     -46.84430978 [mEh]     -29.39524818 [kcal/mol]    -122.98971838 [kJ/mol]
  Total SAPT2                     -45.63374659 [mEh]     -28.63560831 [kcal/mol]    -119.81138517 [kJ/mol]
  Total SAPT2+                    -46.87629570 [mEh]     -29.41531965 [kcal/mol]    -123.07369740 [kJ/mol]

  Special recipe for scaled SAPT0 (see Manual):
    Electrostatics sSAPT0         -51.77001746 [mEh]     -32.48617641 [kcal/mol]    -135.92216211 [kJ/mol]
    Exchange sSAPT0                15.02442280 [mEh]       9.42796765 [kcal/mol]      39.44661663 [kJ/mol]
    Induction sSAPT0               -8.11552600 [mEh]      -5.09256945 [kcal/mol]     -21.30731057 [kJ/mol]
    Dispersion sSAPT0              -1.70406592 [mEh]      -1.06931751 [kcal/mol]      -4.47402446 [kJ/mol]
  Total sSAPT0                    -46.56518657 [mEh]     -29.22009572 [kcal/mol]    -122.25688051 [kJ/mol]
  --------------------------------------------------------------------------------------------------------

*** Psi4 exiting successfully. Buy a developer a beer!
