                               Psi4 1.9 release

  ==> Input File <==

--------------------------------------------------------------------------
MEMORY 60 GB

molecule dimer {
0 1
Na     0.000000     0.000000     0.000000
F      0.000000     1.939580     0.000000
--
-1 1
F      2.133538     0.000000     0.000000

units ang
no_reorient
no_com
symmetry c1
}

set {
basis        aug-cc-pVTZ
scf_type     df
}

energy("sapt2+")
--------------------------------------------------------------------------

  //              Dimer HF             //
    Molecular point group: c1
  Charge       = -1
  Multiplicity = 1
  Basis Set: AUG-CC-PVTZ
    Blend: AUG-CC-PVTZ
  Basis Set: (AUG-CC-PVTZ AUX)
    Blend: AUG-CC-PVTZ-JKFIT + DEF2-UNIVERSAL-JKFIT
  @DF-RHF Final Energy:  -360.86980669660682
    Total Energy =                       -360.8698066966068154
 Dipole X            :        -39.9754458           36.2862225           -3.6892234
 Dipole Y            :        -36.3155056           32.9874750           -3.3280306
 Dipole Z            :         -0.0000000            0.0000000           -0.0000000
 Magnitude           :                                                    4.9685166
  //            Monomer A HF           //
    Molecular point group: c1
  Multiplicity = 1
  Basis Set: AUG-CC-PVTZ
    Blend: AUG-CC-PVTZ
  Basis Set: (AUG-CC-PVTZ AUX)
    Blend: AUG-CC-PVTZ-JKFIT + DEF2-UNIVERSAL-JKFIT
  @DF-RHF Final Energy:  -261.37056492172803
    Total Energy =                       -261.3705649217280325
  //            Monomer B HF           //
    Molecular point group: c1

    Geometry (in Angstrom), charge = -1, multiplicity = 1:

       Center              X                  Y                   Z               Mass
    ------------   -----------------  -----------------  -----------------  -----------------
      Gh(NA)          0.000000000000     0.000000000000     0.000000000000    22.989769282000
      Gh(F)           0.000000000000     1.939580000000     0.000000000000    18.998403162730
         F            2.133538000000     0.000000000000     0.000000000000    18.998403162730

  Charge       = -1
  Multiplicity = 1
  Basis Set: AUG-CC-PVTZ
    Blend: AUG-CC-PVTZ
  Basis Set: (AUG-CC-PVTZ AUX)
    Blend: AUG-CC-PVTZ-JKFIT + DEF2-UNIVERSAL-JKFIT

    Orbital Energies [Eh]
    ---------------------

    Doubly Occupied:

       1A    -25.833829     2A     -1.076083     3A     -0.181051
       4A     -0.181007     5A     -0.181003

  @DF-RHF Final Energy:   -99.45087107919744

   => Energetics <=

    Nuclear Repulsion Energy =              0.0000000000000000
    One-Electron Energy =                -143.9957973280650094
    Two-Electron Energy =                  44.5449262488675686
    Total Energy =                        -99.4508710791974408
 Dipole X            :        -40.3190261           36.2862225           -4.0328036
 Dipole Y            :         -0.0001014            0.0000000           -0.0001014
 Dipole Z            :         -0.0000000            0.0000000           -0.0000000
 Magnitude           :                                                    4.0328036

    SAPT Results
  --------------------------------------------------------------------------------------------------------
    Electrostatics                -68.76514840 [mEh]     -43.15078209 [kcal/mol]    -180.54287225 [kJ/mol]
      Elst10,r                    -66.55218889 [mEh]     -41.76212903 [kcal/mol]    -174.73274787 [kJ/mol]
      Elst12,r                     -2.21295951 [mEh]      -1.38865306 [kcal/mol]      -5.81012438 [kJ/mol]

    Exchange                       37.43147700 [mEh]      23.48860643 [kcal/mol]      98.27632932 [kJ/mol]
      Exch10                       28.60336517 [mEh]      17.94888263 [kcal/mol]      75.09812490 [kJ/mol]
      Exch10(S^2)                  28.37443330 [mEh]      17.80522571 [kcal/mol]      74.49706438 [kJ/mol]
      Exch11(S^2)                  -0.63417278 [mEh]      -0.39794943 [kcal/mol]      -1.66502041 [kJ/mol]
      Exch12(S^2)                   9.46228461 [mEh]       5.93767324 [kcal/mol]      24.84322482 [kJ/mol]

    Induction                     -14.05573623 [mEh]      -8.82010764 [kcal/mol]     -36.90333039 [kJ/mol]
      Ind20,r                     -45.48652516 [mEh]     -28.54322547 [kcal/mol]    -119.42485536 [kJ/mol]
      Ind22                       -15.72376843 [mEh]      -9.86681366 [kcal/mol]     -41.28274834 [kJ/mol]
      Exch-Ind20,r                 34.97429590 [mEh]      21.94670202 [kcal/mol]      91.82500123 [kJ/mol]
      Exch-Ind22                   12.08990416 [mEh]       7.58652940 [kcal/mol]      31.74203900 [kJ/mol]
      delta HF,r (2)                0.09035731 [mEh]       0.05670007 [kcal/mol]       0.23723308 [kJ/mol]

    Dispersion                     -3.98556965 [mEh]      -2.50098272 [kcal/mol]     -10.46411169 [kJ/mol]
      Disp20                       -3.40483394 [mEh]      -2.13656555 [kcal/mol]      -8.93939027 [kJ/mol]
      Disp21                       -0.06695744 [mEh]      -0.04201643 [kcal/mol]      -0.17579673 [kJ/mol]
      Disp22 (SDQ)                 -0.77696962 [mEh]      -0.48755580 [kcal/mol]      -2.03993345 [kJ/mol]
      Disp22 (T)                   -0.64847204 [mEh]      -0.40692235 [kcal/mol]      -1.70256310 [kJ/mol]
      Est. Disp22 (T)              -0.79255532 [mEh]      -0.49733597 [kcal/mol]      -2.08085370 [kJ/mol]
      Exch-Disp20                   1.05574665 [mEh]       0.66249103 [kcal/mol]       2.77186246 [kJ/mol]

  Total HF                        -48.37069568 [mEh]     -30.35306979 [kcal/mol]    -126.99724401 [kJ/mol]
  Total SAPT0                     -50.71978296 [mEh]     -31.82714432 [kcal/mol]    -133.16477182 [kJ/mol]
  Total SAPT2                     -47.73849491 [mEh]     -29.95635782 [kcal/mol]    -125.33740113 [kJ/mol]
  Total SAPT2+                    -49.37497729 [mEh]     -30.98326602 [kcal/mol]    -129.63398501 [kJ/mol]

  Special recipe for scaled SAPT0 (see Manual):
    Electrostatics sSAPT0         -66.55218889 [mEh]     -41.76212903 [kcal/mol]    -174.73274787 [kJ/mol]
    Exchange sSAPT0                28.60336517 [mEh]      17.94888263 [kcal/mol]      75.09812490 [kJ/mol]
    Induction sSAPT0               -9.56847996 [mEh]      -6.00431182 [kcal/mol]     -25.12204067 [kJ/mol]
    Dispersion sSAPT0              -2.32332648 [mEh]      -1.45790938 [kcal/mol]      -6.09989284 [kJ/mol]
  Total sSAPT0                    -49.84063017 [mEh]     -31.27546761 [kcal/mol]    -130.85655648 [kJ/mol]
  --------------------------------------------------------------------------------------------------------

*** Psi4 exiting successfully. Buy a developer a beer!
