                               Psi4 1.9 release

  ==> Input File <==

--------------------------------------------------------------------------
MEMORY 60 GB

molecule dimer {
0 1
Na     0.000000     0.000000     0.000000
F      0.000000     1.939580     0.000000
--
-1 1
F      2.715412     0.000000     0.000000

units ang
no_reorient
no_com
symmetry c1
}

set {
basis        aug-cc-pVTZ
scf_type     df
}

energy("sapt2+")
--------------------------------------------------------------------------

  //              Dimer HF             //
    Molecular point group: c1
  Charge       = -1
  Multiplicity = 1
  Basis Set: AUG-CC-PVTZ
    Blend: AUG-CC-PVTZ
  Basis Set: (AUG-CC-PVTZ AUX)
    Blend: AUG-CC-PVTZ-JKFIT + DEF2-UNIVERSAL-JKFIT
  @DF-RHF Final Energy:  -360.85598319854932
    Total Energy =                       -360.8559831985493247
 Dipole X            :        -51.0090020           46.1824650           -4.8265370
 Dipole Y            :        -36.3130919           32.9874750           -3.3256170
 Dipole Z            :         -0.0000000            0.0000000           -0.0000000
 Magnitude           :                                                    5.8613298
  //            Monomer A HF           //
    Molecular point group: c1
  Multiplicity = 1
  Basis Set: AUG-CC-PVTZ
    Blend: AUG-CC-PVTZ
  Basis Set: (AUG-CC-PVTZ AUX)
    Blend: AUG-CC-PVTZ-JKFIT + DEF2-UNIVERSAL-JKFIT
  @DF-RHF Final Energy:  -261.37054473181706
    Total Energy =                       -261.3705447318170627
  //            Monomer B HF           //
    Molecular point group: c1

    Geometry (in Angstrom), charge = -1, multiplicity = 1:

       Center              X                  Y                   Z               Mass
    ------------   -----------------  -----------------  -----------------  -----------------
      Gh(NA)          0.000000000000     0.000000000000     0.000000000000    22.989769282000
      Gh(F)           0.000000000000     1.939580000000     0.000000000000    18.998403162730
         F            2.715412000000     0.000000000000     0.000000000000    18.998403162730

  Charge       = -1
  Multiplicity = 1
  Basis Set: AUG-CC-PVTZ
    Blend: AUG-CC-PVTZ
  Basis Set: (AUG-CC-PVTZ AUX)
    Blend: AUG-CC-PVTZ-JKFIT + DEF2-UNIVERSAL-JKFIT

    Orbital Energies [Eh]
    ---------------------

    Doubly Occupied:

       1A    -25.833865     2A     -1.076102     3A     -0.181052
       4A     -0.181020     5A     -0.181018

  @DF-RHF Final Energy:   -99.45083986772173

   => Energetics <=

    Nuclear Repulsion Energy =              0.0000000000000000
    One-Electron Energy =                -143.9955670368087794
    Two-Electron Energy =                  44.5447271690870537
    Total Energy =                        -99.4508398677217258
 Dipole X            :        -51.3139883           46.1824650           -5.1315233
 Dipole Y            :         -0.0001755            0.0000000           -0.0001755
 Dipole Z            :         -0.0000000            0.0000000           -0.0000000
 Magnitude           :                                                    5.1315233

    SAPT Results
  --------------------------------------------------------------------------------------------------------
    Electrostatics                -33.89922692 [mEh]     -21.27208604 [kcal/mol]     -89.00240801 [kJ/mol]
      Elst10,r                    -33.57708659 [mEh]     -21.06993994 [kcal/mol]     -88.15662870 [kJ/mol]
      Elst12,r                     -0.32214033 [mEh]      -0.20214611 [kcal/mol]      -0.84577931 [kJ/mol]

    Exchange                        6.84952395 [mEh]       4.29814117 [kcal/mol]      17.98342265 [kJ/mol]
      Exch10                        4.40476406 [mEh]       2.76403118 [kcal/mol]      11.56470644 [kJ/mol]
      Exch10(S^2)                   4.39756268 [mEh]       2.75951224 [kcal/mol]      11.54579923 [kJ/mol]
      Exch11(S^2)                  -0.10192091 [mEh]      -0.06395633 [kcal/mol]      -0.26759330 [kJ/mol]
      Exch12(S^2)                   2.54668079 [mEh]       1.59806633 [kcal/mol]       6.68630951 [kJ/mol]

    Induction                      -7.80526108 [mEh]      -4.89787527 [kcal/mol]     -20.49271013 [kJ/mol]
      Ind20,r                     -11.57737994 [mEh]      -7.26491559 [kcal/mol]     -30.39640685 [kJ/mol]
      Ind22                        -4.89999650 [mEh]      -3.07479423 [kcal/mol]     -12.86493904 [kJ/mol]
      Exch-Ind20,r                  5.95647622 [mEh]       3.73774526 [kcal/mol]      15.63872617 [kJ/mol]
      Exch-Ind22                    2.52101190 [mEh]       1.58195885 [kcal/mol]       6.61891584 [kJ/mol]
      delta HF,r (2)                0.19462724 [mEh]       0.12213044 [kcal/mol]       0.51099375 [kJ/mol]

    Dispersion                     -1.65579102 [mEh]      -1.03902455 [kcal/mol]      -4.34727872 [kJ/mol]
      Disp20                       -1.20822994 [mEh]      -0.75817573 [kcal/mol]      -3.17220726 [kJ/mol]
      Disp21                       -0.06874456 [mEh]      -0.04313786 [kcal/mol]      -0.18048882 [kJ/mol]
      Disp22 (SDQ)                 -0.32783940 [mEh]      -0.20572233 [kcal/mol]      -0.86074223 [kJ/mol]
      Disp22 (T)                   -0.26174945 [mEh]      -0.16425026 [kcal/mol]      -0.68722310 [kJ/mol]
      Est. Disp22 (T)              -0.31686217 [mEh]      -0.19883402 [kcal/mol]      -0.83192153 [kJ/mol]
      Exch-Disp20                   0.26588506 [mEh]       0.16684539 [kcal/mol]       0.69808112 [kJ/mol]

  Total HF                        -34.59859901 [mEh]     -21.71094866 [kcal/mol]     -90.83860919 [kJ/mol]
  Total SAPT0                     -35.54094389 [mEh]     -22.30227900 [kcal/mol]     -93.31273533 [kJ/mol]
  Total SAPT2                     -35.79730893 [mEh]     -22.46315049 [kcal/mol]     -93.98582164 [kJ/mol]
  Total SAPT2+                    -36.51075506 [mEh]     -22.91084470 [kcal/mol]     -95.85897421 [kJ/mol]

  Special recipe for scaled SAPT0 (see Manual):
    Electrostatics sSAPT0         -33.57708659 [mEh]     -21.06993994 [kcal/mol]     -88.15662870 [kJ/mol]
    Exchange sSAPT0                 4.40476406 [mEh]       2.76403118 [kcal/mol]      11.56470644 [kJ/mol]
    Induction sSAPT0               -5.39696584 [mEh]      -3.38664720 [kcal/mol]     -14.16973186 [kJ/mol]
    Dispersion sSAPT0              -0.94103651 [mEh]      -0.59050933 [kcal/mol]      -2.47069103 [kJ/mol]
  Total sSAPT0                    -35.51032489 [mEh]     -22.28306528 [kcal/mol]     -93.23234515 [kJ/mol]
  --------------------------------------------------------------------------------------------------------

*** Psi4 exiting successfully. Buy a developer a beer!
