                               Psi4 1.9 release

  ==> Input File <==

--------------------------------------------------------------------------
MEMORY 60 GB

molecule dimer {
0 1
Na     0.000000     0.000000     0.000000
F      0.000000     1.939580     0.000000
--
-1 1
F      2.521454     0.000000     0.000000

units ang
no_reorient
no_com
symmetry c1
}

set {
basis        aug-cc-pVTZ
scf_type     df
}

energy("sapt2+")
--------------------------------------------------------------------------

  //              Dimer HF             //
    Molecular point group: c1
  Charge       = -1
  Multiplicity = 1
  Basis Set: AUG-CC-PVTZ
    Blend: AUG-CC-PVTZ
  Basis Set: (AUG-CC-PVTZ AUX)
    Blend: AUG-CC-PVTZ-JKFIT + DEF2-UNIVERSAL-JKFIT
  @DF-RHF Final Energy:  -360.86137961836073
    Total Energy =                       -360.8613796183607292
 Dipole X            :        -47.3239082           42.8837175           -4.4401907
 Dipole Y            :        -36.3127151           32.9874750           -3.3252401
 Dipole Z            :         -0.0000000            0.0000000           -0.0000000
 Magnitude           :                                                    5.5472980
  //            Monomer A HF           //
    Molecular point group: c1
  Multiplicity = 1
  Basis Set: AUG-CC-PVTZ
    Blend: AUG-CC-PVTZ
  Basis Set: (AUG-CC-PVTZ AUX)
    Blend: AUG-CC-PVTZ-JKFIT + DEF2-UNIVERSAL-JKFIT
  @DF-RHF Final Energy:  -261.37055541182798
    Total Energy =                       -261.3705554118279792
  //            Monomer B HF           //
    Molecular point group: c1

    Geometry (in Angstrom), charge = -1, multiplicity = 1:

       Center              X                  Y                   Z               Mass
    ------------   -----------------  -----------------  -----------------  -----------------
      Gh(NA)          0.000000000000     0.000000000000     0.000000000000    22.989769282000
      Gh(F)           0.000000000000     1.939580000000     0.000000000000    18.998403162730
         F            2.521454000000     0.000000000000     0.000000000000    18.998403162730

  Charge       = -1
  Multiplicity = 1
  Basis Set: AUG-CC-PVTZ
    Blend: AUG-CC-PVTZ
  Basis Set: (AUG-CC-PVTZ AUX)
    Blend: AUG-CC-PVTZ-JKFIT + DEF2-UNIVERSAL-JKFIT

    Orbital Energies [Eh]
    ---------------------

    Doubly Occupied:

       1A    -25.833848     2A     -1.076094     3A     -0.181059
       4A     -0.181011     5A     -0.181008

  @DF-RHF Final Energy:   -99.45085276925467

   => Energetics <=

    Nuclear Repulsion Energy =              0.0000000000000000
    One-Electron Energy =                -143.9956646721153106
    Two-Electron Energy =                  44.5448119028606513
    Total Energy =                        -99.4508527692546522
 Dipole X            :        -47.6492071           42.8837175           -4.7654897
 Dipole Y            :         -0.0001960            0.0000000           -0.0001960
 Dipole Z            :         -0.0000000            0.0000000           -0.0000000
 Magnitude           :                                                    4.7654897

    SAPT Results
  --------------------------------------------------------------------------------------------------------
    Electrostatics                -42.03820544 [mEh]     -26.37937217 [kcal/mol]    -110.37129318 [kJ/mol]
      Elst10,r                    -41.27820323 [mEh]     -25.90246359 [kcal/mol]    -108.37590766 [kJ/mol]
      Elst12,r                     -0.76000221 [mEh]      -0.47690858 [kcal/mol]      -1.99538552 [kJ/mol]

    Exchange                       11.87736989 [mEh]       7.45316213 [kcal/mol]      31.18403035 [kJ/mol]
      Exch10                        8.06096757 [mEh]       5.05833352 [kcal/mol]      21.16406744 [kJ/mol]
      Exch10(S^2)                   8.03898846 [mEh]       5.04454142 [kcal/mol]      21.10636131 [kJ/mol]
      Exch11(S^2)                  -0.17846222 [mEh]      -0.11198673 [kcal/mol]      -0.46855249 [kJ/mol]
      Exch12(S^2)                   3.99486454 [mEh]       2.50681535 [kcal/mol]      10.48851541 [kJ/mol]

    Induction                      -9.59637088 [mEh]      -6.02181364 [kcal/mol]     -25.19526826 [kJ/mol]
      Ind20,r                     -17.65358390 [mEh]     -11.07779115 [kcal/mol]     -46.34947816 [kJ/mol]
      Ind22                        -7.19867952 [mEh]      -4.51723960 [kcal/mol]     -18.90013047 [kJ/mol]
      Exch-Ind20,r                 10.68362873 [mEh]       6.70407825 [kcal/mol]      28.04986338 [kJ/mol]
      Exch-Ind22                    4.35651026 [mEh]       2.73375146 [kcal/mol]      11.43801610 [kJ/mol]
      delta HF,r (2)                0.21575356 [mEh]       0.13538740 [kcal/mol]       0.56646088 [kJ/mol]

    Dispersion                     -2.21113836 [mEh]      -1.38751027 [kcal/mol]      -5.80534298 [kJ/mol]
      Disp20                       -1.68742326 [mEh]      -1.05887408 [kcal/mol]      -4.43032915 [kJ/mol]
      Disp21                       -0.07848727 [mEh]      -0.04925150 [kcal/mol]      -0.20606829 [kJ/mol]
      Disp22 (SDQ)                 -0.43713122 [mEh]      -0.27430398 [kcal/mol]      -1.14768786 [kJ/mol]
      Disp22 (T)                   -0.34834755 [mEh]      -0.21859139 [kcal/mol]      -0.91458637 [kJ/mol]
      Est. Disp22 (T)              -0.42765833 [mEh]      -0.26835965 [kcal/mol]      -1.12281679 [kJ/mol]
      Exch-Disp20                   0.41956171 [mEh]       0.26327895 [kcal/mol]       1.10155912 [kJ/mol]

  Total HF                        -39.97143728 [mEh]     -25.08245557 [kcal/mol]    -104.94499412 [kJ/mol]
  Total SAPT0                     -41.23929883 [mEh]     -25.87805071 [kcal/mol]    -108.27376415 [kJ/mol]
  Total SAPT2                     -41.02506797 [mEh]     -25.74361881 [kcal/mol]    -107.71130112 [kJ/mol]
  Total SAPT2+                    -41.96834479 [mEh]     -26.33553395 [kcal/mol]    -110.18787406 [kJ/mol]

  Special recipe for scaled SAPT0 (see Manual):
    Electrostatics sSAPT0         -41.27820323 [mEh]     -25.90246359 [kcal/mol]    -108.37590766 [kJ/mol]
    Exchange sSAPT0                 8.06096757 [mEh]       5.05833352 [kcal/mol]      21.16406744 [kJ/mol]
    Induction sSAPT0               -6.66633265 [mEh]      -4.18318689 [kcal/mol]     -17.50245396 [kJ/mol]
    Dispersion sSAPT0              -1.26441081 [mEh]      -0.79342976 [kcal/mol]      -3.31971011 [kJ/mol]
  Total sSAPT0                    -41.14797912 [mEh]     -25.82074672 [kcal/mol]    -108.03400430 [kJ/mol]
  --------------------------------------------------------------------------------------------------------

*** Psi4 exiting successfully. Buy a developer a beer!
