                               Psi4 1.9 release

  ==> Input File <==

--------------------------------------------------------------------------
MEMORY 60 GB

molecule dimer {
0 1
Na     0.000000     0.000000     0.000000
F      0.000000     1.939580     0.000000
--
-1 1
F      3.879160     0.000000     0.000000

units ang
no_reorient
no_com
symmetry c1
}

set {
basis        aug-cc-pVTZ
scf_type     df
}

energy("sapt2+")
--------------------------------------------------------------------------

  //              Dimer HF             //
    Molecular point group: c1
  Charge       = -1
  Multiplicity = 1
  Basis Set: AUG-CC-PVTZ
    Blend: AUG-CC-PVTZ
  Basis Set: (AUG-CC-PVTZ AUX)
    Blend: AUG-CC-PVTZ-JKFIT + DEF2-UNIVERSAL-JKFIT
  @DF-RHF Final Energy:  -360.83522069835738
    Total Energy =                       -360.8352206983573751
 Dipole X            :        -73.1351670           65.9749500           -7.1602170
 Dipole Y            :        -36.3241189           32.9874750           -3.3366439
 Dipole Z            :         -0.0000000            0.0000000           -0.0000000
 Magnitude           :                                                    7.8994874
  //            Monomer A HF           //
    Molecular point group: c1
  Multiplicity = 1
  Basis Set: AUG-CC-PVTZ
    Blend: AUG-CC-PVTZ
  Basis Set: (AUG-CC-PVTZ AUX)
    Blend: AUG-CC-PVTZ-JKFIT + DEF2-UNIVERSAL-JKFIT
  @DF-RHF Final Energy:  -261.37051486368483
    Total Energy =                       -261.3705148636847753
  //            Monomer B HF           //
    Molecular point group: c1

    Geometry (in Angstrom), charge = -1, multiplicity = 1:

       Center              X                  Y                   Z               Mass
    ------------   -----------------  -----------------  -----------------  -----------------
      Gh(NA)          0.000000000000     0.000000000000     0.000000000000    22.989769282000
      Gh(F)           0.000000000000     1.939580000000     0.000000000000    18.998403162730
         F            3.879160000000     0.000000000000     0.000000000000    18.998403162730

  Charge       = -1
  Multiplicity = 1
  Basis Set: AUG-CC-PVTZ
    Blend: AUG-CC-PVTZ
  Basis Set: (AUG-CC-PVTZ AUX)
    Blend: AUG-CC-PVTZ-JKFIT + DEF2-UNIVERSAL-JKFIT

    Orbital Energies [Eh]
    ---------------------

    Doubly Occupied:

       1A    -25.833853     2A     -1.076108     3A     -0.181036
       4A     -0.181029     5A     -0.181028

  @DF-RHF Final Energy:   -99.45082264034832

   => Energetics <=

    Nuclear Repulsion Energy =              0.0000000000000000
    One-Electron Energy =                -143.9955369800826475
    Two-Electron Energy =                  44.5447143397343268
    Total Energy =                        -99.4508226403483206
 Dipole X            :        -73.3053843           65.9749500           -7.3304343
 Dipole Y            :          0.0000109            0.0000000            0.0000109
 Dipole Z            :          0.0000000            0.0000000            0.0000000
 Magnitude           :                                                    7.3304343

    SAPT Results
  --------------------------------------------------------------------------------------------------------
    Electrostatics                -12.26129550 [mEh]      -7.69407909 [kcal/mol]     -32.19202690 [kJ/mol]
      Elst10,r                    -12.55231261 [mEh]      -7.87669508 [kcal/mol]     -32.95609223 [kJ/mol]
      Elst12,r                      0.29101711 [mEh]       0.18261600 [kcal/mol]       0.76406532 [kJ/mol]

    Exchange                        0.29872638 [mEh]       0.18745364 [kcal/mol]       0.78430601 [kJ/mol]
      Exch10                        0.14942002 [mEh]       0.09376248 [kcal/mol]       0.39230221 [kJ/mol]
      Exch10(S^2)                   0.14940655 [mEh]       0.09375403 [kcal/mol]       0.39226685 [kJ/mol]
      Exch11(S^2)                  -0.00526159 [mEh]      -0.00330170 [kcal/mol]      -0.01381429 [kJ/mol]
      Exch12(S^2)                   0.15456795 [mEh]       0.09699285 [kcal/mol]       0.40581809 [kJ/mol]

    Induction                      -2.04814027 [mEh]      -1.28522743 [kcal/mol]      -5.37739155 [kJ/mol]
      Ind20,r                      -1.73844791 [mEh]      -1.09089253 [kcal/mol]      -4.56429436 [kJ/mol]
      Ind22                        -0.64895322 [mEh]      -0.40722430 [kcal/mol]      -1.70382646 [kJ/mol]
      Exch-Ind20,r                  0.21729402 [mEh]       0.13635405 [kcal/mol]       0.57050536 [kJ/mol]
      Exch-Ind22                    0.08111468 [mEh]       0.05090023 [kcal/mol]       0.21296657 [kJ/mol]
      delta HF,r (2)                0.04085216 [mEh]       0.02563512 [kcal/mol]       0.10725733 [kJ/mol]

    Dispersion                     -0.29307480 [mEh]      -0.18390721 [kcal/mol]      -0.76946777 [kJ/mol]
      Disp20                       -0.18404923 [mEh]      -0.11549264 [kcal/mol]      -0.48322119 [kJ/mol]
      Disp21                       -0.01564947 [mEh]      -0.00982019 [kcal/mol]      -0.04108767 [kJ/mol]
      Disp22 (SDQ)                 -0.05605148 [mEh]      -0.03517283 [kcal/mol]      -0.14716314 [kJ/mol]
      Disp22 (T)                   -0.04599398 [mEh]      -0.02886166 [kcal/mol]      -0.12075719 [kJ/mol]
      Est. Disp22 (T)              -0.05365871 [mEh]      -0.03367135 [kcal/mol]      -0.14088092 [kJ/mol]
      Exch-Disp20                   0.01633409 [mEh]       0.01024980 [kcal/mol]       0.04288515 [kJ/mol]

  Total HF                        -13.88319432 [mEh]      -8.71183596 [kcal/mol]     -36.45032168 [kJ/mol]
  Total SAPT0                     -14.05090946 [mEh]      -8.81707880 [kcal/mol]     -36.89065772 [kJ/mol]
  Total SAPT2                     -14.17842453 [mEh]      -8.89709572 [kcal/mol]     -37.22544848 [kJ/mol]
  Total SAPT2+                    -14.30378419 [mEh]      -8.97576009 [kcal/mol]     -37.55458021 [kJ/mol]

  Special recipe for scaled SAPT0 (see Manual):
    Electrostatics sSAPT0         -12.55231261 [mEh]      -7.87669508 [kcal/mol]     -32.95609223 [kJ/mol]
    Exchange sSAPT0                 0.14942002 [mEh]       0.09376248 [kcal/mol]       0.39230221 [kJ/mol]
    Induction sSAPT0               -1.48024296 [mEh]      -0.92886648 [kcal/mol]      -3.88637736 [kJ/mol]
    Dispersion sSAPT0              -0.16771072 [mEh]      -0.10524007 [kcal/mol]      -0.44032444 [kJ/mol]
  Total sSAPT0                    -14.05084628 [mEh]      -8.81703915 [kcal/mol]     -36.89049181 [kJ/mol]
  --------------------------------------------------------------------------------------------------------

*** Psi4 exiting successfully. Buy a developer a beer!
