                               Psi4 1.9 release

  ==> Input File <==

--------------------------------------------------------------------------
MEMORY 60 GB

molecule dimer {
0 1
Na     0.000000     0.000000     0.000000
F      0.000000     1.939580     0.000000
--
-1 1
F      2.909370     0.000000     0.000000

units ang
no_reorient
no_com
symmetry c1
}

set {
basis        aug-cc-pVTZ
scf_type     df
}

energy("sapt2+")
--------------------------------------------------------------------------

  //              Dimer HF             //
    Molecular point group: c1
  Charge       = -1
  Multiplicity = 1
  Basis Set: AUG-CC-PVTZ
    Blend: AUG-CC-PVTZ
  Basis Set: (AUG-CC-PVTZ AUX)
    Blend: AUG-CC-PVTZ-JKFIT + DEF2-UNIVERSAL-JKFIT
  @DF-RHF Final Energy:  -360.85102467851794
    Total Energy =                       -360.8510246785179447
 Dipole X            :        -54.6975393           49.4812125           -5.2163268
 Dipole Y            :        -36.3143121           32.9874750           -3.3268371
 Dipole Z            :          0.0000000            0.0000000            0.0000000
 Magnitude           :                                                    6.1869144
  //            Monomer A HF           //
    Molecular point group: c1
  Multiplicity = 1
  Basis Set: AUG-CC-PVTZ
    Blend: AUG-CC-PVTZ
  Basis Set: (AUG-CC-PVTZ AUX)
    Blend: AUG-CC-PVTZ-JKFIT + DEF2-UNIVERSAL-JKFIT
  @DF-RHF Final Energy:  -261.37053438345629
    Total Energy =                       -261.3705343834562882
  //            Monomer B HF           //
    Molecular point group: c1

    Geometry (in Angstrom), charge = -1, multiplicity = 1:

       Center              X                  Y                   Z               Mass
    ------------   -----------------  -----------------  -----------------  -----------------
      Gh(NA)          0.000000000000     0.000000000000     0.000000000000    22.989769282000
      Gh(F)           0.000000000000     1.939580000000     0.000000000000    18.998403162730
         F            2.909370000000     0.000000000000     0.000000000000    18.998403162730

  Charge       = -1
  Multiplicity = 1
  Basis Set: AUG-CC-PVTZ
    Blend: AUG-CC-PVTZ
  Basis Set: (AUG-CC-PVTZ AUX)
    Blend: AUG-CC-PVTZ-JKFIT + DEF2-UNIVERSAL-JKFIT

    Orbital Energies [Eh]
    ---------------------

    Doubly Occupied:

       1A    -25.833874     2A     -1.076107     3A     -0.181046
       4A     -0.181026     5A     -0.181025

  @DF-RHF Final Energy:   -99.45083192737057

   => Energetics <=

    Nuclear Repulsion Energy =              0.0000000000000000
    One-Electron Energy =                -143.9955082470429204
    Two-Electron Energy =                  44.5446763196723552
    Total Energy =                        -99.4508319273705581
 Dipole X            :        -54.9788533           49.4812125           -5.4976408
 Dipole Y            :         -0.0001444            0.0000000           -0.0001444
 Dipole Z            :          0.0000000            0.0000000            0.0000000
 Magnitude           :                                                    5.4976408

    SAPT Results
  --------------------------------------------------------------------------------------------------------
    Electrostatics                -27.79357596 [mEh]     -17.44073223 [kcal/mol]     -72.97202363 [kJ/mol]
      Elst10,r                    -27.75411022 [mEh]     -17.41596710 [kcal/mol]     -72.86840633 [kJ/mol]
      Elst12,r                     -0.03946574 [mEh]      -0.02476513 [kcal/mol]      -0.10361730 [kJ/mol]

    Exchange                        3.99432427 [mEh]       2.50647632 [kcal/mol]      10.48709693 [kJ/mol]
      Exch10                        2.44376445 [mEh]       1.53348535 [kcal/mol]       6.41610269 [kJ/mol]
      Exch10(S^2)                   2.44133728 [mEh]       1.53196227 [kcal/mol]       6.40973015 [kJ/mol]
      Exch11(S^2)                  -0.06028687 [mEh]      -0.03783058 [kcal/mol]      -0.15828317 [kJ/mol]
      Exch12(S^2)                   1.61084669 [mEh]       1.01082156 [kcal/mol]       4.22927740 [kJ/mol]

    Induction                      -6.27966324 [mEh]      -3.94054817 [kcal/mol]     -16.48725356 [kJ/mol]
      Ind20,r                      -7.84485567 [mEh]      -4.92272125 [kcal/mol]     -20.59666572 [kJ/mol]
      Ind22                        -3.36486205 [mEh]      -2.11148282 [kcal/mol]      -8.83444410 [kJ/mol]
      Exch-Ind20,r                  3.34141777 [mEh]       2.09677131 [kcal/mol]       8.77289116 [kJ/mol]
      Exch-Ind22                    1.43322074 [mEh]       0.89935959 [kcal/mol]       3.76292054 [kJ/mol]
      delta HF,r (2)                0.15541597 [mEh]       0.09752499 [kcal/mol]       0.40804456 [kJ/mol]

    Dispersion                     -1.23767123 [mEh]      -0.77665042 [kcal/mol]      -3.24950538 [kJ/mol]
      Disp20                       -0.86919954 [mEh]      -0.54543095 [kcal/mol]      -2.28208307 [kJ/mol]
      Disp21                       -0.05686604 [mEh]      -0.03568398 [kcal/mol]      -0.14930177 [kJ/mol]
      Disp22 (SDQ)                 -0.24498819 [mEh]      -0.15373241 [kcal/mol]      -0.64321640 [kJ/mol]
      Disp22 (T)                   -0.19385318 [mEh]      -0.12164470 [kcal/mol]      -0.50896145 [kJ/mol]
      Est. Disp22 (T)              -0.23464173 [mEh]      -0.14723991 [kcal/mol]      -0.61605178 [kJ/mol]
      Exch-Disp20                   0.16802426 [mEh]       0.10543682 [kcal/mol]       0.44114764 [kJ/mol]

  Total HF                        -29.65836769 [mEh]     -18.61090670 [kcal/mol]     -77.86803365 [kJ/mol]
  Total SAPT0                     -30.35954297 [mEh]     -19.05090083 [kcal/mol]     -79.70896908 [kJ/mol]
  Total SAPT2                     -30.78009020 [mEh]     -19.31479821 [kcal/mol]     -80.81311570 [kJ/mol]
  Total SAPT2+                    -31.31658616 [mEh]     -19.65145450 [kcal/mol]     -82.22168564 [kJ/mol]

  Special recipe for scaled SAPT0 (see Manual):
    Electrostatics sSAPT0         -27.75411022 [mEh]     -17.41596710 [kcal/mol]     -72.86840633 [kJ/mol]
    Exchange sSAPT0                 2.44376445 [mEh]       1.53348535 [kcal/mol]       6.41610269 [kJ/mol]
    Induction sSAPT0               -4.33804593 [mEh]      -2.72216492 [kcal/mol]     -11.38953801 [kJ/mol]
    Dispersion sSAPT0              -0.70067363 [mEh]      -0.43967934 [kcal/mol]      -1.83961836 [kJ/mol]
  Total sSAPT0                    -30.34906532 [mEh]     -19.04432601 [kcal/mol]     -79.68146002 [kJ/mol]
  --------------------------------------------------------------------------------------------------------

*** Psi4 exiting successfully. Buy a developer a beer!
