                               Psi4 1.9 release

  ==> Input File <==

--------------------------------------------------------------------------
MEMORY 60 GB

molecule dimer {
0 1
Cl     0.000000     0.000000     0.000000
Na     0.000000     2.370103     0.000000
--
1 1
Na     3.081134     0.000000     0.000000

units ang
no_reorient
no_com
symmetry c1
}

set {
basis        aug-cc-pVTZ
scf_type     df
}

energy("sapt2+")
--------------------------------------------------------------------------

  //              Dimer HF             //
    Molecular point group: c1
  Charge       = 1
  Multiplicity = 1
  Basis Set: AUG-CC-PVTZ
    Blend: AUG-CC-PVTZ
  Basis Set: (AUG-CC-PVTZ AUX)
    Blend: AUG-CC-PVTZ-JKFIT + DEF2-UNIVERSAL-JKFIT
  @DF-RHF Final Energy:  -783.17233246639046
    Total Energy =                       -783.1723324663904577
 Dipole X            :        -58.9208793           64.0474936            5.1266143
 Dipole Y            :        -45.5434825           49.2673012            3.7238186
 Dipole Z            :         -0.0000000            0.0000000           -0.0000000
 Magnitude           :                                                    6.3363238
  //            Monomer A HF           //
    Molecular point group: c1
  Multiplicity = 1
  Basis Set: AUG-CC-PVTZ
    Blend: AUG-CC-PVTZ
  Basis Set: (AUG-CC-PVTZ AUX)
    Blend: AUG-CC-PVTZ-JKFIT + DEF2-UNIVERSAL-JKFIT
  @DF-RHF Final Energy:  -621.45488089021455
    Total Energy =                       -621.4548808902145538
  //            Monomer B HF           //
    Molecular point group: c1

    Geometry (in Angstrom), charge = 1, multiplicity = 1:

       Center              X                  Y                   Z               Mass
    ------------   -----------------  -----------------  -----------------  -----------------
      Gh(CL)          0.000000000000     0.000000000000     0.000000000000    34.968852682000
      Gh(NA)          0.000000000000     2.370103000000     0.000000000000    22.989769282000
         NA           3.081134000000     0.000000000000     0.000000000000    22.989769282000

  Charge       = 1
  Multiplicity = 1
  Basis Set: AUG-CC-PVTZ
    Blend: AUG-CC-PVTZ
  Basis Set: (AUG-CC-PVTZ AUX)
    Blend: AUG-CC-PVTZ-JKFIT + DEF2-UNIVERSAL-JKFIT

    Orbital Energies [Eh]
    ---------------------

    Doubly Occupied:

       1A    -40.763015     2A     -3.075005     3A     -1.798272
       4A     -1.798170     5A     -1.798139

  @DF-RHF Final Energy:  -161.67603549103970

   => Energetics <=

    Nuclear Repulsion Energy =              0.0000000000000000
    One-Electron Energy =                -224.8868676839611283
    Two-Electron Energy =                  63.2108321929214299
    Total Energy =                       -161.6760354910396984
 Dipole X            :        -58.2256257           64.0474936            5.8218678
 Dipole Y            :          0.0001027            0.0000000            0.0001027
 Dipole Z            :         -0.0000000            0.0000000           -0.0000000
 Magnitude           :                                                    5.8218678

    SAPT Results
  --------------------------------------------------------------------------------------------------------
    Electrostatics                -34.24558661 [mEh]     -21.48943003 [kcal/mol]     -89.91177525 [kJ/mol]
      Elst10,r                    -34.40927453 [mEh]     -21.59214575 [kcal/mol]     -90.34153782 [kJ/mol]
      Elst12,r                      0.16368792 [mEh]       0.10271572 [kcal/mol]       0.42976257 [kJ/mol]

    Exchange                        4.24020862 [mEh]       2.66077108 [kcal/mol]      11.13266621 [kJ/mol]
      Exch10                        3.90117114 [mEh]       2.44802185 [kcal/mol]      10.24252342 [kJ/mol]
      Exch10(S^2)                   3.89689608 [mEh]       2.44533921 [kcal/mol]      10.23129924 [kJ/mol]
      Exch11(S^2)                  -0.03556921 [mEh]      -0.02232001 [kcal/mol]      -0.09338694 [kJ/mol]
      Exch12(S^2)                   0.37460669 [mEh]       0.23506925 [kcal/mol]       0.98352973 [kJ/mol]

    Induction                     -11.92070414 [mEh]      -7.48035478 [kcal/mol]     -31.29780442 [kJ/mol]
      Ind20,r                     -18.44856721 [mEh]     -11.57665070 [kcal/mol]     -48.43670654 [kJ/mol]
      Ind22                        -1.64832648 [mEh]      -1.03434048 [kcal/mol]      -4.32768058 [kJ/mol]
      Exch-Ind20,r                  7.11387268 [mEh]       4.46402250 [kcal/mol]      18.67747015 [kJ/mol]
      Exch-Ind22                    0.63560409 [mEh]       0.39884759 [kcal/mol]       1.66877830 [kJ/mol]
      delta HF,r (2)                0.42671278 [mEh]       0.26776631 [kcal/mol]       1.12033425 [kJ/mol]

    Dispersion                     -0.30701810 [mEh]      -0.19265677 [kcal/mol]      -0.80607591 [kJ/mol]
      Disp20                       -0.29788599 [mEh]      -0.18692628 [kcal/mol]      -0.78209957 [kJ/mol]
      Disp21                       -0.01152620 [mEh]      -0.00723280 [kcal/mol]      -0.03026204 [kJ/mol]
      Disp22 (SDQ)                 -0.01257684 [mEh]      -0.00789209 [kcal/mol]      -0.03302049 [kJ/mol]
      Disp22 (T)                   -0.02387834 [mEh]      -0.01498389 [kcal/mol]      -0.06269259 [kJ/mol]
      Est. Disp22 (T)              -0.02799569 [mEh]      -0.01756756 [kcal/mol]      -0.07350267 [kJ/mol]
      Exch-Disp20                   0.04296663 [mEh]       0.02696197 [kcal/mol]       0.11280886 [kJ/mol]

  Total HF                        -41.41608514 [mEh]     -25.98898579 [kcal/mol]    -108.73791654 [kJ/mol]
  Total SAPT0                     -41.67100450 [mEh]     -26.14895011 [kcal/mol]    -109.40720725 [kJ/mol]
  Total SAPT2                     -42.18100149 [mEh]     -26.46897805 [kcal/mol]    -110.74620416 [kJ/mol]
  Total SAPT2+                    -42.23310023 [mEh]     -26.50167050 [kcal/mol]    -110.88298937 [kJ/mol]

  Special recipe for scaled SAPT0 (see Manual):
    Electrostatics sSAPT0         -34.40927453 [mEh]     -21.59214575 [kcal/mol]     -90.34153782 [kJ/mol]
    Exchange sSAPT0                 3.90117114 [mEh]       2.44802185 [kcal/mol]      10.24252342 [kJ/mol]
    Induction sSAPT0              -10.88454337 [mEh]      -6.83015408 [kcal/mol]     -28.57736469 [kJ/mol]
    Dispersion sSAPT0              -0.25477780 [mEh]      -0.15987548 [kcal/mol]      -0.66891903 [kJ/mol]
  Total sSAPT0                    -41.64742456 [mEh]     -26.13415347 [kcal/mol]    -109.34529812 [kJ/mol]
  --------------------------------------------------------------------------------------------------------

*** Psi4 exiting successfully. Buy a developer a beer!
