                               Psi4 1.9 release

  ==> Input File <==

--------------------------------------------------------------------------
MEMORY 60 GB

molecule dimer {
0 1
Cl     0.000000     0.000000     0.000000
Na     0.000000     2.370103     0.000000
--
1 1
Na     4.740206     0.000000     0.000000

units ang
no_reorient
no_com
symmetry c1
}

set {
basis        aug-cc-pVTZ
scf_type     df
}

energy("sapt2+")
--------------------------------------------------------------------------

  //              Dimer HF             //
    Molecular point group: c1
  Charge       = 1
  Multiplicity = 1
  Basis Set: AUG-CC-PVTZ
    Blend: AUG-CC-PVTZ
  Basis Set: (AUG-CC-PVTZ AUX)
    Blend: AUG-CC-PVTZ-JKFIT + DEF2-UNIVERSAL-JKFIT
  @DF-RHF Final Energy:  -783.14449823740631
    Total Energy =                       -783.1444982374063102
 Dipole X            :        -89.9276918           98.5346023            8.6069105
 Dipole Y            :        -45.5707497           49.2673012            3.6965514
 Dipole Z            :          0.0000000            0.0000000            0.0000000
 Magnitude           :                                                    9.3671447
  //            Monomer A HF           //
    Molecular point group: c1
  Multiplicity = 1
  Basis Set: AUG-CC-PVTZ
    Blend: AUG-CC-PVTZ
  Basis Set: (AUG-CC-PVTZ AUX)
    Blend: AUG-CC-PVTZ-JKFIT + DEF2-UNIVERSAL-JKFIT
  @DF-RHF Final Energy:  -621.45483271186345
    Total Energy =                       -621.4548327118635598
  //            Monomer B HF           //
    Molecular point group: c1

    Geometry (in Angstrom), charge = 1, multiplicity = 1:

       Center              X                  Y                   Z               Mass
    ------------   -----------------  -----------------  -----------------  -----------------
      Gh(CL)          0.000000000000     0.000000000000     0.000000000000    34.968852682000
      Gh(NA)          0.000000000000     2.370103000000     0.000000000000    22.989769282000
         NA           4.740206000000     0.000000000000     0.000000000000    22.989769282000

  Charge       = 1
  Multiplicity = 1
  Basis Set: AUG-CC-PVTZ
    Blend: AUG-CC-PVTZ
  Basis Set: (AUG-CC-PVTZ AUX)
    Blend: AUG-CC-PVTZ-JKFIT + DEF2-UNIVERSAL-JKFIT

    Orbital Energies [Eh]
    ---------------------

    Doubly Occupied:

       1A    -40.763641     2A     -3.075289     3A     -1.798471
       4A     -1.798432     5A     -1.798430

  @DF-RHF Final Energy:  -161.67602721241425

   => Energetics <=

    Nuclear Repulsion Energy =              0.0000000000000000
    One-Electron Energy =                -224.8835275995054701
    Two-Electron Energy =                  63.2075003870912369
    Total Energy =                       -161.6760272124142261
 Dipole X            :        -89.5771231           98.5346023            8.9574792
 Dipole Y            :          0.0000669            0.0000000            0.0000669
 Dipole Z            :         -0.0000000            0.0000000           -0.0000000
 Magnitude           :                                                    8.9574792

    SAPT Results
  --------------------------------------------------------------------------------------------------------
    Electrostatics                -11.20675446 [mEh]      -7.03234459 [kcal/mol]     -29.42332977 [kJ/mol]
      Elst10,r                    -11.28742107 [mEh]      -7.08296366 [kcal/mol]     -29.63511994 [kJ/mol]
      Elst12,r                      0.08066662 [mEh]       0.05061907 [kcal/mol]       0.21179017 [kJ/mol]

    Exchange                        0.02731132 [mEh]       0.01713811 [kcal/mol]       0.07170586 [kJ/mol]
      Exch10                        0.02253545 [mEh]       0.01414121 [kcal/mol]       0.05916680 [kJ/mol]
      Exch10(S^2)                   0.02253529 [mEh]       0.01414111 [kcal/mol]       0.05916639 [kJ/mol]
      Exch11(S^2)                  -0.00012310 [mEh]      -0.00007725 [kcal/mol]      -0.00032320 [kJ/mol]
      Exch12(S^2)                   0.00489897 [mEh]       0.00307415 [kcal/mol]       0.01286225 [kJ/mol]

    Induction                      -2.55691580 [mEh]      -1.60448889 [kcal/mol]      -6.71318150 [kJ/mol]
      Ind20,r                      -2.21894614 [mEh]      -1.39240972 [kcal/mol]      -5.82584228 [kJ/mol]
      Ind22                        -0.18782110 [mEh]      -0.11785952 [kcal/mol]      -0.49312424 [kJ/mol]
      Exch-Ind20,r                  0.05118843 [mEh]       0.03212122 [kcal/mol]       0.13439520 [kJ/mol]
      Exch-Ind22                    0.00433281 [mEh]       0.00271888 [kcal/mol]       0.01137579 [kJ/mol]
      delta HF,r (2)               -0.20566979 [mEh]      -0.12905974 [kcal/mol]      -0.53998597 [kJ/mol]

    Dispersion                     -0.01847106 [mEh]      -0.01159076 [kcal/mol]      -0.04849575 [kJ/mol]
      Disp20                       -0.01596163 [mEh]      -0.01001607 [kcal/mol]      -0.04190725 [kJ/mol]
      Disp21                       -0.00026857 [mEh]      -0.00016853 [kcal/mol]      -0.00070514 [kJ/mol]
      Disp22 (SDQ)                 -0.00083685 [mEh]      -0.00052513 [kcal/mol]      -0.00219714 [kJ/mol]
      Disp22 (T)                   -0.00150861 [mEh]      -0.00094667 [kcal/mol]      -0.00396085 [kJ/mol]
      Est. Disp22 (T)              -0.00166450 [mEh]      -0.00104449 [kcal/mol]      -0.00437013 [kJ/mol]
      Exch-Disp20                   0.00026049 [mEh]       0.00016346 [kcal/mol]       0.00068391 [kJ/mol]

  Total HF                        -13.63831313 [mEh]      -8.55817069 [kcal/mol]     -35.80738619 [kJ/mol]
  Total SAPT0                     -13.65401427 [mEh]      -8.56802331 [kcal/mol]     -35.84860953 [kJ/mol]
  Total SAPT2                     -13.75206007 [mEh]      -8.62954798 [kcal/mol]     -36.10602875 [kJ/mol]
  Total SAPT2+                    -13.75482999 [mEh]      -8.63128613 [kcal/mol]     -36.11330116 [kJ/mol]

  Special recipe for scaled SAPT0 (see Manual):
    Electrostatics sSAPT0         -11.28742107 [mEh]      -7.08296366 [kcal/mol]     -29.63511994 [kJ/mol]
    Exchange sSAPT0                 0.02253545 [mEh]       0.01414121 [kcal/mol]       0.05916680 [kJ/mol]
    Induction sSAPT0               -2.37342644 [mEh]      -1.48934758 [kcal/mol]      -6.23143026 [kJ/mol]
    Dispersion sSAPT0              -0.01570114 [mEh]      -0.00985261 [kcal/mol]      -0.04122333 [kJ/mol]
  Total sSAPT0                    -13.65401320 [mEh]      -8.56802264 [kcal/mol]     -35.84860672 [kJ/mol]
  --------------------------------------------------------------------------------------------------------

*** Psi4 exiting successfully. Buy a developer a beer!
