                               Psi4 1.9 release

  ==> Input File <==

--------------------------------------------------------------------------
MEMORY 60 GB

molecule dimer {
0 1
Cl     0.000000     0.000000     0.000000
Na     0.000000     2.370103     0.000000
--
1 1
Na     2.370103     0.000000     0.000000

units ang
no_reorient
no_com
symmetry c1
}

set {
basis        aug-cc-pVTZ
scf_type     df
}

energy("sapt2+")
--------------------------------------------------------------------------

  //              Dimer HF             //
    Molecular point group: c1
  Charge       = 1
  Multiplicity = 1
  Basis Set: AUG-CC-PVTZ
    Blend: AUG-CC-PVTZ
  Basis Set: (AUG-CC-PVTZ AUX)
    Blend: AUG-CC-PVTZ-JKFIT + DEF2-UNIVERSAL-JKFIT
  @DF-RHF Final Energy:  -783.17859121911056
    Total Energy =                       -783.1785912191105581
 Dipole X            :        -45.5151509           49.2673012            3.7521503
 Dipole Y            :        -45.5151509           49.2673012            3.7521503
 Dipole Z            :          0.0000000            0.0000000            0.0000000
 Magnitude           :                                                    5.3063418
  //            Monomer A HF           //
    Molecular point group: c1
  Multiplicity = 1
  Basis Set: AUG-CC-PVTZ
    Blend: AUG-CC-PVTZ
  Basis Set: (AUG-CC-PVTZ AUX)
    Blend: AUG-CC-PVTZ-JKFIT + DEF2-UNIVERSAL-JKFIT
  @DF-RHF Final Energy:  -621.45491467169552
    Total Energy =                       -621.4549146716955192
  //            Monomer B HF           //
    Molecular point group: c1

    Geometry (in Angstrom), charge = 1, multiplicity = 1:

       Center              X                  Y                   Z               Mass
    ------------   -----------------  -----------------  -----------------  -----------------
      Gh(CL)          0.000000000000     0.000000000000     0.000000000000    34.968852682000
      Gh(NA)          0.000000000000     2.370103000000     0.000000000000    22.989769282000
         NA           2.370103000000     0.000000000000     0.000000000000    22.989769282000

  Charge       = 1
  Multiplicity = 1
  Basis Set: AUG-CC-PVTZ
    Blend: AUG-CC-PVTZ
  Basis Set: (AUG-CC-PVTZ AUX)
    Blend: AUG-CC-PVTZ-JKFIT + DEF2-UNIVERSAL-JKFIT

    Orbital Energies [Eh]
    ---------------------

    Doubly Occupied:

       1A    -40.762561     2A     -3.074798     3A     -1.798086
       4A     -1.798010     5A     -1.797940

  @DF-RHF Final Energy:  -161.67604484844978

   => Energetics <=

    Nuclear Repulsion Energy =              0.0000000000000000
    One-Electron Energy =                -224.8892983581321516
    Two-Electron Energy =                  63.2132535096823744
    Total Energy =                       -161.6760448484497772
 Dipole X            :        -44.7890385           49.2673012            4.4782627
 Dipole Y            :          0.0001716            0.0000000            0.0001716
 Dipole Z            :          0.0000000            0.0000000            0.0000000
 Magnitude           :                                                    4.4782627

    SAPT Results
  --------------------------------------------------------------------------------------------------------
    Electrostatics                -68.29087143 [mEh]     -42.85316880 [kcal/mol]    -179.29765825 [kJ/mol]
      Elst10,r                    -68.49794177 [mEh]     -42.98310739 [kcal/mol]    -179.84132133 [kJ/mol]
      Elst12,r                      0.20707033 [mEh]       0.12993859 [kcal/mol]       0.54366308 [kJ/mol]

    Exchange                       39.91160856 [mEh]      25.04491249 [kcal/mol]     104.78791384 [kJ/mol]
      Exch10                       38.78678780 [mEh]      24.33907680 [kcal/mol]     101.83469733 [kJ/mol]
      Exch10(S^2)                  38.40800122 [mEh]      24.10138464 [kcal/mol]     100.84019332 [kJ/mol]
      Exch11(S^2)                  -0.59565406 [mEh]      -0.37377857 [kcal/mol]      -1.56388953 [kJ/mol]
      Exch12(S^2)                   1.72047483 [mEh]       1.07961425 [kcal/mol]       4.51710604 [kJ/mol]

    Induction                     -19.49328661 [mEh]     -12.23222202 [kcal/mol]     -51.17961694 [kJ/mol]
      Ind20,r                     -81.70174771 [mEh]     -51.26862071 [kcal/mol]    -214.50790906 [kJ/mol]
      Ind22                        -5.70929685 [mEh]      -3.58263786 [kcal/mol]     -14.98975681 [kJ/mol]
      Exch-Ind20,r                 59.19534424 [mEh]      37.14563931 [kcal/mol]     155.41735489 [kJ/mol]
      Exch-Ind22                    4.13655524 [mEh]       2.59572760 [kcal/mol]      10.86052428 [kJ/mol]
      delta HF,r (2)                4.58585847 [mEh]       2.87766964 [kcal/mol]      12.04016976 [kJ/mol]

    Dispersion                     -1.18508308 [mEh]      -0.74365086 [kcal/mol]      -3.11143520 [kJ/mol]
      Disp20                       -1.39728059 [mEh]      -0.87680681 [kcal/mol]      -3.66855969 [kJ/mol]
      Disp21                       -0.01130604 [mEh]      -0.00709465 [kcal/mol]      -0.02968401 [kJ/mol]
      Disp22 (SDQ)                 -0.04306046 [mEh]      -0.02702085 [kcal/mol]      -0.11305522 [kJ/mol]
      Disp22 (T)                   -0.10234946 [mEh]      -0.06422526 [kcal/mol]      -0.26871848 [kJ/mol]
      Est. Disp22 (T)              -0.12454128 [mEh]      -0.07815083 [kcal/mol]      -0.32698308 [kJ/mol]
      Exch-Disp20                   0.39110529 [mEh]       0.24542228 [kcal/mol]       1.02684681 [kJ/mol]

  Total HF                        -47.63169897 [mEh]     -29.88934235 [kcal/mol]    -125.05700840 [kJ/mol]
  Total SAPT0                     -48.63787426 [mEh]     -30.52072688 [kcal/mol]    -127.69872128 [kJ/mol]
  Total SAPT2                     -48.87872478 [mEh]     -30.67186287 [kcal/mol]    -128.33107423 [kJ/mol]
  Total SAPT2+                    -49.05763256 [mEh]     -30.78412919 [kcal/mol]    -128.80079655 [kJ/mol]

  Special recipe for scaled SAPT0 (see Manual):
    Electrostatics sSAPT0         -68.49794177 [mEh]     -42.98310739 [kcal/mol]    -179.84132133 [kJ/mol]
    Exchange sSAPT0                38.78678780 [mEh]      24.33907680 [kcal/mol]     101.83469733 [kJ/mol]
    Induction sSAPT0              -16.15183054 [mEh]     -10.13542668 [kcal/mol]     -42.40662523 [kJ/mol]
    Dispersion sSAPT0              -0.99448935 [mEh]      -0.62405149 [kcal/mol]      -2.61103143 [kJ/mol]
  Total sSAPT0                    -46.85747386 [mEh]     -29.40350876 [kcal/mol]    -123.02428066 [kJ/mol]
  --------------------------------------------------------------------------------------------------------

*** Psi4 exiting successfully. Buy a developer a beer!
