                               Psi4 1.9 release

  ==> Input File <==

--------------------------------------------------------------------------
MEMORY 60 GB

molecule dimer {
0 1
Cl     0.000000     0.000000     0.000000
Na     0.000000     2.370103     0.000000
--
1 1
Na     2.844124     0.000000     0.000000

units ang
no_reorient
no_com
symmetry c1
}

set {
basis        aug-cc-pVTZ
scf_type     df
}

energy("sapt2+")
--------------------------------------------------------------------------

  //              Dimer HF             //
    Molecular point group: c1
  Charge       = 1
  Multiplicity = 1
  Basis Set: AUG-CC-PVTZ
    Blend: AUG-CC-PVTZ
  Basis Set: (AUG-CC-PVTZ AUX)
    Blend: AUG-CC-PVTZ-JKFIT + DEF2-UNIVERSAL-JKFIT
  @DF-RHF Final Energy:  -783.17786223379358
    Total Energy =                       -783.1778622337935758
 Dipole X            :        -54.4745321           59.1207697            4.6462376
 Dipole Y            :        -45.5352814           49.2673012            3.7320198
 Dipole Z            :         -0.0000000            0.0000000           -0.0000000
 Magnitude           :                                                    5.9594879
  //            Monomer A HF           //
    Molecular point group: c1
  Multiplicity = 1
  Basis Set: AUG-CC-PVTZ
    Blend: AUG-CC-PVTZ
  Basis Set: (AUG-CC-PVTZ AUX)
    Blend: AUG-CC-PVTZ-JKFIT + DEF2-UNIVERSAL-JKFIT
  @DF-RHF Final Energy:  -621.45489040932114
    Total Energy =                       -621.4548904093211377
  //            Monomer B HF           //
    Molecular point group: c1

    Geometry (in Angstrom), charge = 1, multiplicity = 1:

       Center              X                  Y                   Z               Mass
    ------------   -----------------  -----------------  -----------------  -----------------
      Gh(CL)          0.000000000000     0.000000000000     0.000000000000    34.968852682000
      Gh(NA)          0.000000000000     2.370103000000     0.000000000000    22.989769282000
         NA           2.844124000000     0.000000000000     0.000000000000    22.989769282000

  Charge       = 1
  Multiplicity = 1
  Basis Set: AUG-CC-PVTZ
    Blend: AUG-CC-PVTZ
  Basis Set: (AUG-CC-PVTZ AUX)
    Blend: AUG-CC-PVTZ-JKFIT + DEF2-UNIVERSAL-JKFIT

    Orbital Energies [Eh]
    ---------------------

    Doubly Occupied:

       1A    -40.762965     2A     -3.074977     3A     -1.798235
       4A     -1.798156     5A     -1.798116

  @DF-RHF Final Energy:  -161.67603740595595

   => Energetics <=

    Nuclear Repulsion Energy =              0.0000000000000000
    One-Electron Energy =                -224.8871748551955250
    Two-Electron Energy =                  63.2111374492395797
    Total Energy =                       -161.6760374059559524
 Dipole X            :        -53.7467819           59.1207697            5.3739878
 Dipole Y            :          0.0001147            0.0000000            0.0001147
 Dipole Z            :         -0.0000000            0.0000000           -0.0000000
 Magnitude           :                                                    5.3739878

    SAPT Results
  --------------------------------------------------------------------------------------------------------
    Electrostatics                -42.03292965 [mEh]     -26.37606156 [kcal/mol]    -110.35744158 [kJ/mol]
      Elst10,r                    -42.21087647 [mEh]     -26.48772488 [kcal/mol]    -110.82464090 [kJ/mol]
      Elst12,r                      0.17794682 [mEh]       0.11166332 [kcal/mol]       0.46719931 [kJ/mol]

    Exchange                        8.91011569 [mEh]       5.59118201 [kcal/mol]      23.39350552 [kJ/mol]
      Exch10                        8.34669316 [mEh]       5.23762904 [kcal/mol]      21.91423988 [kJ/mol]
      Exch10(S^2)                   8.32762352 [mEh]       5.22566265 [kcal/mol]      21.86417255 [kJ/mol]
      Exch11(S^2)                  -0.08834405 [mEh]      -0.05543673 [kcal/mol]      -0.23194727 [kJ/mol]
      Exch12(S^2)                   0.65176657 [mEh]       0.40898970 [kcal/mol]       1.71121291 [kJ/mol]

    Induction                     -14.30202903 [mEh]      -8.97465871 [kcal/mol]     -37.54997203 [kJ/mol]
      Ind20,r                     -28.84819633 [mEh]     -18.10251650 [kcal/mol]     -75.74092903 [kJ/mol]
      Ind22                        -2.46284534 [mEh]      -1.54545878 [kcal/mol]      -6.46619955 [kJ/mol]
      Exch-Ind20,r                 14.41975084 [mEh]       9.04853026 [kcal/mol]      37.85905062 [kJ/mol]
      Exch-Ind22                    1.23105153 [mEh]       0.77249650 [kcal/mol]       3.23212534 [kJ/mol]
      delta HF,r (2)                1.35821028 [mEh]       0.85228982 [kcal/mol]       3.56598059 [kJ/mol]

    Dispersion                     -0.47646496 [mEh]      -0.29898627 [kcal/mol]      -1.25095857 [kJ/mol]
      Disp20                       -0.48561935 [mEh]      -0.30473074 [kcal/mol]      -1.27499342 [kJ/mol]
      Disp21                       -0.01599319 [mEh]      -0.01003588 [kcal/mol]      -0.04199011 [kJ/mol]
      Disp22 (SDQ)                 -0.01844144 [mEh]      -0.01157218 [kcal/mol]      -0.04841799 [kJ/mol]
      Disp22 (T)                   -0.03710228 [mEh]      -0.02328203 [kcal/mol]      -0.09741203 [kJ/mol]
      Est. Disp22 (T)              -0.04434158 [mEh]      -0.02782476 [kcal/mol]      -0.11641879 [kJ/mol]
      Exch-Disp20                   0.08793059 [mEh]       0.05517728 [kcal/mol]       0.23086173 [kJ/mol]

  Total HF                        -46.93441852 [mEh]     -29.45179227 [kcal/mol]    -123.22629884 [kJ/mol]
  Total SAPT0                     -47.33210727 [mEh]     -29.70134573 [kcal/mol]    -124.27043053 [kJ/mol]
  Total SAPT2                     -47.82253174 [mEh]     -30.00909173 [kcal/mol]    -125.55803979 [kJ/mol]
  Total SAPT2+                    -47.90130794 [mEh]     -30.05852454 [kcal/mol]    -125.76486667 [kJ/mol]

  Special recipe for scaled SAPT0 (see Manual):
    Electrostatics sSAPT0         -42.21087647 [mEh]     -26.48772488 [kcal/mol]    -110.82464090 [kJ/mol]
    Exchange sSAPT0                 8.34669316 [mEh]       5.23762904 [kcal/mol]      21.91423988 [kJ/mol]
    Induction sSAPT0              -12.97094772 [mEh]      -8.13939258 [kcal/mol]     -34.05521854 [kJ/mol]
    Dispersion sSAPT0              -0.39708331 [mEh]      -0.24917354 [kcal/mol]      -1.04254209 [kJ/mol]
  Total sSAPT0                    -47.23221433 [mEh]     -29.63866196 [kcal/mol]    -124.00816164 [kJ/mol]
  --------------------------------------------------------------------------------------------------------

*** Psi4 exiting successfully. Buy a developer a beer!
