                               Psi4 1.9 release

  ==> Input File <==

--------------------------------------------------------------------------
MEMORY 60 GB

molecule dimer {
0 1
Cl     0.000000     0.000000     0.000000
Na     0.000000     2.370103     0.000000
--
1 1
Na     3.318144     0.000000     0.000000

units ang
no_reorient
no_com
symmetry c1
}

set {
basis        aug-cc-pVTZ
scf_type     df
}

energy("sapt2+")
--------------------------------------------------------------------------

  //              Dimer HF             //
    Molecular point group: c1
  Charge       = 1
  Multiplicity = 1
  Basis Set: AUG-CC-PVTZ
    Blend: AUG-CC-PVTZ
  Basis Set: (AUG-CC-PVTZ AUX)
    Blend: AUG-CC-PVTZ-JKFIT + DEF2-UNIVERSAL-JKFIT
  @DF-RHF Final Energy:  -783.16653876008115
    Total Energy =                       -783.1665387600811528
 Dipole X            :        -63.3541950           68.9742175            5.6200225
 Dipole Y            :        -45.5503031           49.2673012            3.7169980
 Dipole Z            :         -0.0000000            0.0000000           -0.0000000
 Magnitude           :                                                    6.7380062
  //            Monomer A HF           //
    Molecular point group: c1
  Multiplicity = 1
  Basis Set: AUG-CC-PVTZ
    Blend: AUG-CC-PVTZ
  Basis Set: (AUG-CC-PVTZ AUX)
    Blend: AUG-CC-PVTZ-JKFIT + DEF2-UNIVERSAL-JKFIT
  @DF-RHF Final Energy:  -621.45487135080850
    Total Energy =                       -621.4548713508083893
  //            Monomer B HF           //
    Molecular point group: c1

    Geometry (in Angstrom), charge = 1, multiplicity = 1:

       Center              X                  Y                   Z               Mass
    ------------   -----------------  -----------------  -----------------  -----------------
      Gh(CL)          0.000000000000     0.000000000000     0.000000000000    34.968852682000
      Gh(NA)          0.000000000000     2.370103000000     0.000000000000    22.989769282000
         NA           3.318144000000     0.000000000000     0.000000000000    22.989769282000

  Charge       = 1
  Multiplicity = 1
  Basis Set: AUG-CC-PVTZ
    Blend: AUG-CC-PVTZ
  Basis Set: (AUG-CC-PVTZ AUX)
    Blend: AUG-CC-PVTZ-JKFIT + DEF2-UNIVERSAL-JKFIT

    Orbital Energies [Eh]
    ---------------------

    Doubly Occupied:

       1A    -40.763105     2A     -3.075049     3A     -1.798314
       4A     -1.798204     5A     -1.798180

  @DF-RHF Final Energy:  -161.67603420706578

   => Energetics <=

    Nuclear Repulsion Energy =              0.0000000000000000
    One-Electron Energy =                -224.8863634873681292
    Two-Electron Energy =                  63.2103292803023464
    Total Energy =                       -161.6760342070657828
 Dipole X            :        -62.7044053           68.9742175            6.2698122
 Dipole Y            :          0.0000942            0.0000000            0.0000942
 Dipole Z            :         -0.0000000            0.0000000           -0.0000000
 Magnitude           :                                                    6.2698122

    SAPT Results
  --------------------------------------------------------------------------------------------------------
    Electrostatics                -28.36140967 [mEh]     -17.79705326 [kcal/mol]     -74.46287082 [kJ/mol]
      Elst10,r                    -28.51352628 [mEh]     -17.89250787 [kcal/mol]     -74.86225293 [kJ/mol]
      Elst12,r                      0.15211661 [mEh]       0.09545461 [kcal/mol]       0.39938210 [kJ/mol]

    Exchange                        2.02453762 [mEh]       1.27041654 [kcal/mol]       5.31542279 [kJ/mol]
      Exch10                        1.83020526 [mEh]       1.14847114 [kcal/mol]       4.80520324 [kJ/mol]
      Exch10(S^2)                   1.82924762 [mEh]       1.14787021 [kcal/mol]       4.80268898 [kJ/mol]
      Exch11(S^2)                  -0.01466484 [mEh]      -0.00920233 [kcal/mol]      -0.03850254 [kJ/mol]
      Exch12(S^2)                   0.20899721 [mEh]       0.13114773 [kcal/mol]       0.54872209 [kJ/mol]

    Induction                      -9.75403666 [mEh]      -6.12075041 [kcal/mol]     -25.60921973 [kJ/mol]
      Ind20,r                     -12.33638281 [mEh]      -7.74119709 [kcal/mol]     -32.38916861 [kJ/mol]
      Ind22                        -1.12268916 [mEh]      -0.70449809 [kcal/mol]      -2.94761999 [kJ/mol]
      Exch-Ind20,r                  3.50012596 [mEh]       2.19636220 [kcal/mol]       9.18957945 [kJ/mol]
      Exch-Ind22                    0.31853369 [mEh]       0.19988291 [kcal/mol]       0.83631008 [kJ/mol]
      delta HF,r (2)               -0.11362434 [mEh]      -0.07130035 [kcal/mol]      -0.29832066 [kJ/mol]

    Dispersion                     -0.19763784 [mEh]      -0.12401962 [kcal/mol]      -0.51889807 [kJ/mol]
      Disp20                       -0.18466816 [mEh]      -0.11588102 [kcal/mol]      -0.48484619 [kJ/mol]
      Disp21                       -0.00756423 [mEh]      -0.00474662 [kcal/mol]      -0.01985988 [kJ/mol]
      Disp22 (SDQ)                 -0.00849624 [mEh]      -0.00533147 [kcal/mol]      -0.02230687 [kJ/mol]
      Disp22 (T)                   -0.01547466 [mEh]      -0.00971049 [kcal/mol]      -0.04062871 [kJ/mol]
      Est. Disp22 (T)              -0.01785879 [mEh]      -0.01120656 [kcal/mol]      -0.04688824 [kJ/mol]
      Exch-Disp20                   0.02094958 [mEh]       0.01314606 [kcal/mol]       0.05500310 [kJ/mol]

  Total HF                        -35.63320221 [mEh]     -22.36017197 [kcal/mol]     -93.55495951 [kJ/mol]
  Total SAPT0                     -35.79692079 [mEh]     -22.46290693 [kcal/mol]     -93.98480259 [kJ/mol]
  Total SAPT2                     -36.25462729 [mEh]     -22.75012209 [kcal/mol]     -95.18651084 [kJ/mol]
  Total SAPT2+                    -36.28854655 [mEh]     -22.77140675 [kcal/mol]     -95.27556583 [kJ/mol]

  Special recipe for scaled SAPT0 (see Manual):
    Electrostatics sSAPT0         -28.51352628 [mEh]     -17.89250787 [kcal/mol]     -74.86225293 [kJ/mol]
    Exchange sSAPT0                 1.83020526 [mEh]       1.14847114 [kcal/mol]       4.80520324 [kJ/mol]
    Induction sSAPT0               -8.94438124 [mEh]      -5.61268397 [kcal/mol]     -23.48346972 [kJ/mol]
    Dispersion sSAPT0              -0.16368566 [mEh]      -0.10271431 [kcal/mol]      -0.42975665 [kJ/mol]
  Total sSAPT0                    -35.79138793 [mEh]     -22.45943501 [kcal/mol]     -93.97027606 [kJ/mol]
  --------------------------------------------------------------------------------------------------------

*** Psi4 exiting successfully. Buy a developer a beer!
