                               Psi4 1.9 release

  ==> Input File <==

--------------------------------------------------------------------------
MEMORY 60 GB

molecule dimer {
0 1
Cl     0.000000     0.000000     0.000000
Na     0.000000     2.370103     0.000000
--
1 1
Na     2.607113     0.000000     0.000000

units ang
no_reorient
no_com
symmetry c1
}

set {
basis        aug-cc-pVTZ
scf_type     df
}

energy("sapt2+")
--------------------------------------------------------------------------

  //              Dimer HF             //
    Molecular point group: c1
  Charge       = 1
  Multiplicity = 1
  Basis Set: AUG-CC-PVTZ
    Blend: AUG-CC-PVTZ
  Basis Set: (AUG-CC-PVTZ AUX)
    Blend: AUG-CC-PVTZ-JKFIT + DEF2-UNIVERSAL-JKFIT
  @DF-RHF Final Energy:  -783.18133440615134
    Total Energy =                       -783.1813344061513362
 Dipole X            :        -50.0083725           54.1940250            4.1856525
 Dipole Y            :        -45.5257397           49.2673012            3.7415614
 Dipole Z            :         -0.0000000            0.0000000           -0.0000000
 Magnitude           :                                                    5.6141757
  //            Monomer A HF           //
    Molecular point group: c1
  Multiplicity = 1
  Basis Set: AUG-CC-PVTZ
    Blend: AUG-CC-PVTZ
  Basis Set: (AUG-CC-PVTZ AUX)
    Blend: AUG-CC-PVTZ-JKFIT + DEF2-UNIVERSAL-JKFIT
  @DF-RHF Final Energy:  -621.45490123625279
    Total Energy =                       -621.4549012362527947
  //            Monomer B HF           //
    Molecular point group: c1

    Geometry (in Angstrom), charge = 1, multiplicity = 1:

       Center              X                  Y                   Z               Mass
    ------------   -----------------  -----------------  -----------------  -----------------
      Gh(CL)          0.000000000000     0.000000000000     0.000000000000    34.968852682000
      Gh(NA)          0.000000000000     2.370103000000     0.000000000000    22.989769282000
         NA           2.607113000000     0.000000000000     0.000000000000    22.989769282000

  Charge       = 1
  Multiplicity = 1
  Basis Set: AUG-CC-PVTZ
    Blend: AUG-CC-PVTZ
  Basis Set: (AUG-CC-PVTZ AUX)
    Blend: AUG-CC-PVTZ-JKFIT + DEF2-UNIVERSAL-JKFIT

    Orbital Energies [Eh]
    ---------------------

    Doubly Occupied:

       1A    -40.762851     2A     -3.074923     3A     -1.798184
       4A     -1.798117     5A     -1.798066

  @DF-RHF Final Energy:  -161.67604063385170

   => Energetics <=

    Nuclear Repulsion Energy =              0.0000000000000000
    One-Electron Energy =                -224.8878017786985026
    Two-Electron Energy =                  63.2117611448467827
    Total Energy =                       -161.6760406338517271
 Dipole X            :        -49.2678900           54.1940250            4.9261350
 Dipole Y            :          0.0001353            0.0000000            0.0001353
 Dipole Z            :          0.0000000            0.0000000            0.0000000
 Magnitude           :                                                    4.9261350

    SAPT Results
  --------------------------------------------------------------------------------------------------------
    Electrostatics                -52.73698701 [mEh]     -33.09295897 [kcal/mol]    -138.46094033 [kJ/mol]
      Elst10,r                    -52.93793064 [mEh]     -33.21905300 [kcal/mol]    -138.98851773 [kJ/mol]
      Elst12,r                      0.20094362 [mEh]       0.12609403 [kcal/mol]       0.52757741 [kJ/mol]

    Exchange                       18.79414946 [mEh]      11.79350684 [kcal/mol]      49.34403261 [kJ/mol]
      Exch10                       17.93446941 [mEh]      11.25404946 [kcal/mol]      47.08694294 [kJ/mol]
      Exch10(S^2)                  17.84955261 [mEh]      11.20076337 [kcal/mol]      46.86399393 [kJ/mol]
      Exch11(S^2)                  -0.22484148 [mEh]      -0.14109016 [kcal/mol]      -0.59032123 [kJ/mol]
      Exch12(S^2)                   1.08452154 [mEh]       0.68054754 [kcal/mol]       2.84741090 [kJ/mol]

    Induction                     -16.81471725 [mEh]     -10.55139437 [kcal/mol]     -44.14703406 [kJ/mol]
      Ind20,r                     -47.27647904 [mEh]     -29.66643848 [kcal/mol]    -124.12437862 [kJ/mol]
      Ind22                        -3.72092596 [mEh]      -2.33491629 [kcal/mol]      -9.76928975 [kJ/mol]
      Exch-Ind20,r                 29.16288171 [mEh]      18.29998456 [kcal/mol]      76.56713538 [kJ/mol]
      Exch-Ind22                    2.29528353 [mEh]       1.44031216 [kcal/mol]       6.02626607 [kJ/mol]
      delta HF,r (2)                2.72452251 [mEh]       1.70966369 [kcal/mol]       7.15323286 [kJ/mol]

    Dispersion                     -0.74086988 [mEh]      -0.46490287 [kcal/mol]      -1.94515360 [kJ/mol]
      Disp20                       -0.80424411 [mEh]      -0.50467080 [kcal/mol]      -2.11154262 [kJ/mol]
      Disp21                       -0.01857189 [mEh]      -0.01165403 [kcal/mol]      -0.04876048 [kJ/mol]
      Disp22 (SDQ)                 -0.02721858 [mEh]      -0.01707992 [kcal/mol]      -0.07146237 [kJ/mol]
      Disp22 (T)                   -0.05972736 [mEh]      -0.03747949 [kcal/mol]      -0.15681417 [kJ/mol]
      Est. Disp22 (T)              -0.07208474 [mEh]      -0.04523386 [kcal/mol]      -0.18925846 [kJ/mol]
      Exch-Disp20                   0.18124944 [mEh]       0.11373574 [kcal/mol]       0.47587034 [kJ/mol]

  Total HF                        -50.39253605 [mEh]     -31.62179378 [kcal/mol]    -132.30558516 [kJ/mol]
  Total SAPT0                     -51.01553072 [mEh]     -32.01272884 [kcal/mol]    -133.94125745 [kJ/mol]
  Total SAPT2                     -51.38054947 [mEh]     -32.24178156 [kcal/mol]    -134.89961406 [kJ/mol]
  Total SAPT2+                    -51.49842468 [mEh]     -32.31574937 [kcal/mol]    -135.20909537 [kJ/mol]

  Special recipe for scaled SAPT0 (see Manual):
    Electrostatics sSAPT0         -52.93793064 [mEh]     -33.21905300 [kcal/mol]    -138.98851773 [kJ/mol]
    Exchange sSAPT0                17.93446941 [mEh]      11.25404946 [kcal/mol]      47.08694294 [kJ/mol]
    Induction sSAPT0              -14.97087639 [mEh]      -9.39436677 [kcal/mol]     -39.30603055 [kJ/mol]
    Dispersion sSAPT0              -0.62039554 [mEh]      -0.38930408 [kcal/mol]      -1.62884826 [kJ/mol]
  Total sSAPT0                    -50.59473315 [mEh]     -31.74867438 [kcal/mol]    -132.83645360 [kJ/mol]
  --------------------------------------------------------------------------------------------------------

*** Psi4 exiting successfully. Buy a developer a beer!
