                               Psi4 1.9 release

  ==> Input File <==

--------------------------------------------------------------------------
MEMORY 60 GB

molecule dimer {
0 1
Cl     0.000000     0.000000     0.000000
Na     0.000000     2.370103     0.000000
--
1 1
Na     3.555154     0.000000     0.000000

units ang
no_reorient
no_com
symmetry c1
}

set {
basis        aug-cc-pVTZ
scf_type     df
}

energy("sapt2+")
--------------------------------------------------------------------------

  //              Dimer HF             //
    Molecular point group: c1
  Charge       = 1
  Multiplicity = 1
  Basis Set: AUG-CC-PVTZ
    Blend: AUG-CC-PVTZ
  Basis Set: (AUG-CC-PVTZ AUX)
    Blend: AUG-CC-PVTZ-JKFIT + DEF2-UNIVERSAL-JKFIT
  @DF-RHF Final Energy:  -783.16120468620784
    Total Energy =                       -783.1612046862078387
 Dipole X            :        -67.7803295           73.9009413            6.1206118
 Dipole Y            :        -45.5558486           49.2673012            3.7114525
 Dipole Z            :          0.0000000            0.0000000            0.0000000
 Magnitude           :                                                    7.1579864
  //            Monomer A HF           //
    Molecular point group: c1
  Multiplicity = 1
  Basis Set: AUG-CC-PVTZ
    Blend: AUG-CC-PVTZ
  Basis Set: (AUG-CC-PVTZ AUX)
    Blend: AUG-CC-PVTZ-JKFIT + DEF2-UNIVERSAL-JKFIT
  @DF-RHF Final Energy:  -621.45486183036542
    Total Energy =                       -621.4548618303654166
  //            Monomer B HF           //
    Molecular point group: c1

    Geometry (in Angstrom), charge = 1, multiplicity = 1:

       Center              X                  Y                   Z               Mass
    ------------   -----------------  -----------------  -----------------  -----------------
      Gh(CL)          0.000000000000     0.000000000000     0.000000000000    34.968852682000
      Gh(NA)          0.000000000000     2.370103000000     0.000000000000    22.989769282000
         NA           3.555154000000     0.000000000000     0.000000000000    22.989769282000

  Charge       = 1
  Multiplicity = 1
  Basis Set: AUG-CC-PVTZ
    Blend: AUG-CC-PVTZ
  Basis Set: (AUG-CC-PVTZ AUX)
    Blend: AUG-CC-PVTZ-JKFIT + DEF2-UNIVERSAL-JKFIT

    Orbital Energies [Eh]
    ---------------------

    Doubly Occupied:

       1A    -40.763250     2A     -3.075117     3A     -1.798363
       4A     -1.798266     5A     -1.798248

  @DF-RHF Final Energy:  -161.67603268417358

   => Energetics <=

    Nuclear Repulsion Energy =              0.0000000000000000
    One-Electron Energy =                -224.8855808835276662
    Two-Electron Energy =                  63.2095481993540957
    Total Energy =                       -161.6760326841735775
 Dipole X            :        -67.1831297           73.9009413            6.7178116
 Dipole Y            :          0.0000869            0.0000000            0.0000869
 Dipole Z            :          0.0000000            0.0000000            0.0000000
 Magnitude           :                                                    6.7178116

    SAPT Results
  --------------------------------------------------------------------------------------------------------
    Electrostatics                -23.78841489 [mEh]     -14.92745571 [kcal/mol]     -62.45647470 [kJ/mol]
      Elst10,r                    -23.92875112 [mEh]     -15.01551803 [kcal/mol]     -62.82492742 [kJ/mol]
      Elst12,r                      0.14033623 [mEh]       0.08806231 [kcal/mol]       0.36845272 [kJ/mol]

    Exchange                        0.97040651 [mEh]       0.60893928 [kcal/mol]       2.54780194 [kJ/mol]
      Exch10                        0.86222773 [mEh]       0.54105607 [kcal/mol]       2.26377860 [kJ/mol]
      Exch10(S^2)                   0.86201258 [mEh]       0.54092106 [kcal/mol]       2.26321371 [kJ/mol]
      Exch11(S^2)                  -0.00620151 [mEh]      -0.00389151 [kcal/mol]      -0.01628206 [kJ/mol]
      Exch12(S^2)                   0.11438029 [mEh]       0.07177472 [kcal/mol]       0.30030541 [kJ/mol]

    Induction                      -7.86965628 [mEh]      -4.93828387 [kcal/mol]     -20.66177972 [kJ/mol]
      Ind20,r                      -8.59837920 [mEh]      -5.39556441 [kcal/mol]     -22.57504148 [kJ/mol]
      Ind22                        -0.78248223 [mEh]      -0.49101501 [kcal/mol]      -2.05440681 [kJ/mol]
      Exch-Ind20,r                  1.71943168 [mEh]       1.07895967 [kcal/mol]       4.51436726 [kJ/mol]
      Exch-Ind22                    0.15647423 [mEh]       0.09818906 [kcal/mol]       0.41082303 [kJ/mol]
      delta HF,r (2)               -0.36470076 [mEh]      -0.22885318 [kcal/mol]      -0.95752171 [kJ/mol]

    Dispersion                     -0.12791801 [mEh]      -0.08026977 [kcal/mol]      -0.33584870 [kJ/mol]
      Disp20                       -0.11618165 [mEh]      -0.07290509 [kcal/mol]      -0.30503489 [kJ/mol]
      Disp21                       -0.00468231 [mEh]      -0.00293820 [kcal/mol]      -0.01229341 [kJ/mol]
      Disp22 (SDQ)                 -0.00570559 [mEh]      -0.00358031 [kcal/mol]      -0.01498003 [kJ/mol]
      Disp22 (T)                   -0.01013924 [mEh]      -0.00636247 [kcal/mol]      -0.02662058 [kJ/mol]
      Est. Disp22 (T)              -0.01152510 [mEh]      -0.00723211 [kcal/mol]      -0.03025914 [kJ/mol]
      Exch-Disp20                   0.01017664 [mEh]       0.00638594 [kcal/mol]       0.02671878 [kJ/mol]

  Total HF                        -30.31017167 [mEh]     -19.01991987 [kcal/mol]     -79.57934475 [kJ/mol]
  Total SAPT0                     -30.41617668 [mEh]     -19.08643902 [kcal/mol]     -79.85766087 [kJ/mol]
  Total SAPT2                     -30.79366967 [mEh]     -19.32331945 [kcal/mol]     -80.84876859 [kJ/mol]
  Total SAPT2+                    -30.81558268 [mEh]     -19.33707007 [kcal/mol]     -80.90630118 [kJ/mol]

  Special recipe for scaled SAPT0 (see Manual):
    Electrostatics sSAPT0         -23.92875112 [mEh]     -15.01551803 [kcal/mol]     -62.82492742 [kJ/mol]
    Exchange sSAPT0                 0.86222773 [mEh]       0.54105607 [kcal/mol]       2.26377860 [kJ/mol]
    Induction sSAPT0               -7.24236046 [mEh]      -4.54464980 [kcal/mol]     -19.01481477 [kJ/mol]
    Dispersion sSAPT0              -0.10599739 [mEh]      -0.06651436 [kcal/mol]      -0.27829610 [kJ/mol]
  Total sSAPT0                    -30.41488124 [mEh]     -19.08562612 [kcal/mol]     -79.85425969 [kJ/mol]
  --------------------------------------------------------------------------------------------------------

*** Psi4 exiting successfully. Buy a developer a beer!
