                               Psi4 1.9 release

  ==> Input File <==

--------------------------------------------------------------------------
MEMORY 60 GB

molecule dimer {
0 1
Na     0.000000     0.000000     0.000000
Cl     0.000000     2.370103     0.000000
--
-1 1
Cl     2.844124     0.000000     0.000000

units ang
no_reorient
no_com
symmetry c1
}

set {
basis        aug-cc-pVTZ
scf_type     df
}

energy("sapt2+")
--------------------------------------------------------------------------

  //              Dimer HF             //
    Molecular point group: c1
  Charge       = -1
  Multiplicity = 1
  Basis Set: AUG-CC-PVTZ
    Blend: AUG-CC-PVTZ
  Basis Set: (AUG-CC-PVTZ AUX)
    Blend: AUG-CC-PVTZ-JKFIT + DEF2-UNIVERSAL-JKFIT
  @DF-RHF Final Energy: -1081.06338422058070
    Total Energy =                      -1081.0633842205807014
 Dipole X            :        -96.0161178           91.3684623           -4.6476555
 Dipole Y            :        -79.8487837           76.1403745           -3.7084091
 Dipole Z            :          0.0000000            0.0000000            0.0000000
 Magnitude           :                                                    5.9458389
  //            Monomer A HF           //
    Molecular point group: c1
  Multiplicity = 1
  Basis Set: AUG-CC-PVTZ
    Blend: AUG-CC-PVTZ
  Basis Set: (AUG-CC-PVTZ AUX)
    Blend: AUG-CC-PVTZ-JKFIT + DEF2-UNIVERSAL-JKFIT
  @DF-RHF Final Energy:  -621.45486723794158
    Total Energy =                       -621.4548672379414711
  //            Monomer B HF           //
    Molecular point group: c1

    Geometry (in Angstrom), charge = -1, multiplicity = 1:

       Center              X                  Y                   Z               Mass
    ------------   -----------------  -----------------  -----------------  -----------------
      Gh(NA)          0.000000000000     0.000000000000     0.000000000000    22.989769282000
      Gh(CL)          0.000000000000     2.370103000000     0.000000000000    34.968852682000
         CL           2.844124000000     0.000000000000     0.000000000000    34.968852682000

  Charge       = -1
  Multiplicity = 1
  Basis Set: AUG-CC-PVTZ
    Blend: AUG-CC-PVTZ
  Basis Set: (AUG-CC-PVTZ AUX)
    Blend: AUG-CC-PVTZ-JKFIT + DEF2-UNIVERSAL-JKFIT

    Orbital Energies [Eh]
    ---------------------

    Doubly Occupied:

       1A   -104.506350     2A    -10.229837     3A     -7.695888
       4A     -7.695885     5A     -7.695865     6A     -0.733500
       7A     -0.150336     8A     -0.150325     9A     -0.150324

  @DF-RHF Final Energy:  -459.57350447908721

   => Energetics <=

    Nuclear Repulsion Energy =              0.0000000000000000
    One-Electron Energy =                -641.1303896592600040
    Two-Electron Energy =                 181.5568851801728272
    Total Energy =                       -459.5735044790872053
 Dipole X            :        -96.7434331           91.3684623           -5.3749708
 Dipole Y            :          0.0000217            0.0000000            0.0000217
 Dipole Z            :          0.0000000            0.0000000            0.0000000
 Magnitude           :                                                    5.3749708

    SAPT Results
  --------------------------------------------------------------------------------------------------------
    Electrostatics                -40.74224629 [mEh]     -25.56614553 [kcal/mol]    -106.96875289 [kJ/mol]
      Elst10,r                    -40.05484300 [mEh]     -25.13479345 [kcal/mol]    -105.16397580 [kJ/mol]
      Elst12,r                     -0.68740329 [mEh]      -0.43135208 [kcal/mol]      -1.80477709 [kJ/mol]

    Exchange                       18.47281946 [mEh]      11.59186922 [kcal/mol]      48.50038081 [kJ/mol]
      Exch10                       16.46776825 [mEh]      10.33368059 [kcal/mol]      43.23611959 [kJ/mol]
      Exch10(S^2)                  16.32893754 [mEh]      10.24656301 [kcal/mol]      42.87161962 [kJ/mol]
      Exch11(S^2)                   0.32663513 [mEh]       0.20496664 [kcal/mol]       0.85758042 [kJ/mol]
      Exch12(S^2)                   1.67841607 [mEh]       1.05322199 [kcal/mol]       4.40668079 [kJ/mol]

    Induction                     -12.87651388 [mEh]      -8.08013445 [kcal/mol]     -33.80728253 [kJ/mol]
      Ind20,r                     -36.92988236 [mEh]     -23.17385104 [kcal/mol]     -96.95939277 [kJ/mol]
      Ind22                        -4.52749350 [mEh]      -2.84104506 [kcal/mol]     -11.88693254 [kJ/mol]
      Exch-Ind20,r                 25.09366416 [mEh]      15.74651199 [kcal/mol]      65.88340618 [kJ/mol]
      Exch-Ind22                    3.07640843 [mEh]       1.93047543 [kcal/mol]       8.07710922 [kJ/mol]
      delta HF,r (2)                0.41078939 [mEh]       0.25777423 [kcal/mol]       1.07852739 [kJ/mol]

    Dispersion                     -4.64523044 [mEh]      -2.91492611 [kcal/mol]     -12.19605085 [kJ/mol]
      Disp20                       -5.64324363 [mEh]      -3.54118884 [kcal/mol]     -14.81633412 [kJ/mol]
      Disp21                        0.55285242 [mEh]       0.34692013 [kcal/mol]       1.45151384 [kJ/mol]
      Disp22 (SDQ)                 -0.02073285 [mEh]      -0.01301006 [kcal/mol]      -0.05443408 [kJ/mol]
      Disp22 (T)                   -0.93149007 [mEh]      -0.58451884 [kcal/mol]      -2.44562684 [kJ/mol]
      Est. Disp22 (T)              -1.07095886 [mEh]      -0.67203683 [kcal/mol]      -2.81180211 [kJ/mol]
      Exch-Disp20                   1.53685248 [mEh]       0.96438949 [kcal/mol]       4.03500562 [kJ/mol]

  Total HF                        -35.01250355 [mEh]     -21.97067768 [kcal/mol]     -91.92531541 [kJ/mol]
  Total SAPT0                     -39.11889471 [mEh]     -24.54747703 [kcal/mol]    -102.70664391 [kJ/mol]
  Total SAPT2                     -39.25233186 [mEh]     -24.63121011 [kcal/mol]    -103.05698311 [kJ/mol]
  Total SAPT2+                    -39.79117115 [mEh]     -24.96933687 [kcal/mol]    -104.47170546 [kJ/mol]

  Special recipe for scaled SAPT0 (see Manual):
    Electrostatics sSAPT0         -40.05484300 [mEh]     -25.13479345 [kcal/mol]    -105.16397580 [kJ/mol]
    Exchange sSAPT0                16.46776825 [mEh]      10.33368059 [kcal/mol]      43.23611959 [kJ/mol]
    Induction sSAPT0              -10.77992302 [mEh]      -6.76450382 [kcal/mol]     -28.30268400 [kJ/mol]
    Dispersion sSAPT0              -4.06685739 [mEh]      -2.55199154 [kcal/mol]     -10.67753260 [kJ/mol]
  Total sSAPT0                    -38.43385515 [mEh]     -24.11760822 [kcal/mol]    -100.90807280 [kJ/mol]
  --------------------------------------------------------------------------------------------------------

*** Psi4 exiting successfully. Buy a developer a beer!
