                               Psi4 1.9 release

  ==> Input File <==

--------------------------------------------------------------------------
MEMORY 60 GB

molecule dimer {
0 1
Na     0.000000     0.000000     0.000000
Cl     0.000000     2.370103     0.000000
--
-1 1
Cl     3.318144     0.000000     0.000000

units ang
no_reorient
no_com
symmetry c1
}

set {
basis        aug-cc-pVTZ
scf_type     df
}

energy("sapt2+")
--------------------------------------------------------------------------

  //              Dimer HF             //
    Molecular point group: c1
  Charge       = -1
  Multiplicity = 1
  Basis Set: AUG-CC-PVTZ
    Blend: AUG-CC-PVTZ
  Basis Set: (AUG-CC-PVTZ AUX)
    Blend: AUG-CC-PVTZ-JKFIT + DEF2-UNIVERSAL-JKFIT
  @DF-RHF Final Energy: -1081.05536442349785
    Total Energy =                      -1081.0553644234978492
 Dipole X            :       -112.2342672          106.5965179           -5.6377493
 Dipole Y            :        -79.8331436           76.1403745           -3.6927691
 Dipole Z            :          0.0000000            0.0000000            0.0000000
 Magnitude           :                                                    6.7394926
  //            Monomer A HF           //
    Molecular point group: c1
  Multiplicity = 1
  Basis Set: AUG-CC-PVTZ
    Blend: AUG-CC-PVTZ
  Basis Set: (AUG-CC-PVTZ AUX)
    Blend: AUG-CC-PVTZ-JKFIT + DEF2-UNIVERSAL-JKFIT
  @DF-RHF Final Energy:  -621.45483115728962
    Total Energy =                       -621.4548311572896182
  //            Monomer B HF           //
    Molecular point group: c1

    Geometry (in Angstrom), charge = -1, multiplicity = 1:

       Center              X                  Y                   Z               Mass
    ------------   -----------------  -----------------  -----------------  -----------------
      Gh(NA)          0.000000000000     0.000000000000     0.000000000000    22.989769282000
      Gh(CL)          0.000000000000     2.370103000000     0.000000000000    34.968852682000
         CL           3.318144000000     0.000000000000     0.000000000000    34.968852682000

  Charge       = -1
  Multiplicity = 1
  Basis Set: AUG-CC-PVTZ
    Blend: AUG-CC-PVTZ
  Basis Set: (AUG-CC-PVTZ AUX)
    Blend: AUG-CC-PVTZ-JKFIT + DEF2-UNIVERSAL-JKFIT

    Orbital Energies [Eh]
    ---------------------

    Doubly Occupied:

       1A   -104.506217     2A    -10.229805     3A     -7.695849
       4A     -7.695847     5A     -7.695833     6A     -0.733504
       7A     -0.150339     8A     -0.150328     9A     -0.150328

  @DF-RHF Final Energy:  -459.57349812070544

   => Energetics <=

    Nuclear Repulsion Energy =              0.0000000000000000
    One-Electron Energy =                -641.1308945687835603
    Two-Electron Energy =                 181.5573964480781513
    Total Energy =                       -459.5734981207053806
 Dipole X            :       -112.8670966          106.5965179           -6.2705787
 Dipole Y            :          0.0000096            0.0000000            0.0000096
 Dipole Z            :         -0.0000000            0.0000000           -0.0000000
 Magnitude           :                                                    6.2705787

    SAPT Results
  --------------------------------------------------------------------------------------------------------
    Electrostatics                -24.61505804 [mEh]     -15.44618212 [kcal/mol]     -64.62682598 [kJ/mol]
      Elst10,r                    -24.53801907 [mEh]     -15.39783943 [kcal/mol]     -64.42456019 [kJ/mol]
      Elst12,r                     -0.07703897 [mEh]      -0.04834268 [kcal/mol]      -0.20226578 [kJ/mol]

    Exchange                        5.69141141 [mEh]       3.57141458 [kcal/mol]      14.94279860 [kJ/mol]
      Exch10                        4.85322651 [mEh]       3.04544561 [kcal/mol]      12.74214443 [kJ/mol]
      Exch10(S^2)                   4.83813804 [mEh]       3.03597746 [kcal/mol]      12.70252968 [kJ/mol]
      Exch11(S^2)                   0.16514810 [mEh]       0.10363200 [kcal/mol]       0.43359628 [kJ/mol]
      Exch12(S^2)                   0.67303680 [mEh]       0.42233697 [kcal/mol]       1.76705788 [kJ/mol]

    Induction                      -8.33669459 [mEh]      -5.23135484 [kcal/mol]     -21.88798864 [kJ/mol]
      Ind20,r                     -14.90497596 [mEh]      -9.35301362 [kcal/mol]     -39.13300898 [kJ/mol]
      Ind22                        -1.97520164 [mEh]      -1.23945774 [kcal/mol]      -5.18589119 [kJ/mol]
      Exch-Ind20,r                  7.46198971 [mEh]       4.68246924 [kcal/mol]      19.59145129 [kJ/mol]
      Exch-Ind22                    0.98885999 [mEh]       0.62051901 [kcal/mol]       2.59625154 [kJ/mol]
      delta HF,r (2)                0.09263331 [mEh]       0.05812828 [kcal/mol]       0.24320871 [kJ/mol]

    Dispersion                     -2.63355095 [mEh]      -1.65257817 [kcal/mol]      -6.91438707 [kJ/mol]
      Disp20                       -2.92862428 [mEh]      -1.83773948 [kcal/mol]      -7.68910200 [kJ/mol]
      Disp21                        0.27279870 [mEh]       0.17118377 [kcal/mol]       0.71623288 [kJ/mol]
      Disp22 (SDQ)                 -0.02364374 [mEh]      -0.01483667 [kcal/mol]      -0.06207663 [kJ/mol]
      Disp22 (T)                   -0.50992254 [mEh]      -0.31998123 [kcal/mol]      -1.33880145 [kJ/mol]
      Est. Disp22 (T)              -0.58750267 [mEh]      -0.36866349 [kcal/mol]      -1.54248804 [kJ/mol]
      Exch-Disp20                   0.63342104 [mEh]       0.39747771 [kcal/mol]       1.66304672 [kJ/mol]

  Total HF                        -27.03514550 [mEh]     -16.96480993 [kcal/mol]     -70.98076474 [kJ/mol]
  Total SAPT0                     -29.33034874 [mEh]     -18.40507171 [kcal/mol]     -77.00682002 [kJ/mol]
  Total SAPT2                     -29.55554446 [mEh]     -18.54638415 [kcal/mol]     -77.59807130 [kJ/mol]
  Total SAPT2+                    -29.89389217 [mEh]     -18.75870055 [kcal/mol]     -78.48640309 [kJ/mol]

  Special recipe for scaled SAPT0 (see Manual):
    Electrostatics sSAPT0         -24.53801907 [mEh]     -15.39783943 [kcal/mol]     -64.42456019 [kJ/mol]
    Exchange sSAPT0                 4.85322651 [mEh]       3.04544561 [kcal/mol]      12.74214443 [kJ/mol]
    Induction sSAPT0               -7.28032096 [mEh]      -4.56847038 [kcal/mol]     -19.11448005 [kJ/mol]
    Dispersion sSAPT0              -2.28925848 [mEh]      -1.43653139 [kcal/mol]      -6.01044732 [kJ/mol]
  Total sSAPT0                    -29.25437201 [mEh]     -18.35739558 [kcal/mol]     -76.80734313 [kJ/mol]
  --------------------------------------------------------------------------------------------------------

*** Psi4 exiting successfully. Buy a developer a beer!
