                               Psi4 1.9 release

  ==> Input File <==

--------------------------------------------------------------------------
MEMORY 60 GB

molecule dimer {
0 1
Na     0.000000     0.000000     0.000000
Cl     0.000000     2.370103     0.000000
--
-1 1
Cl     4.740206     0.000000     0.000000

units ang
no_reorient
no_com
symmetry c1
}

set {
basis        aug-cc-pVTZ
scf_type     df
}

energy("sapt2+")
--------------------------------------------------------------------------

  //              Dimer HF             //
    Molecular point group: c1
  Charge       = -1
  Multiplicity = 1
  Basis Set: AUG-CC-PVTZ
    Blend: AUG-CC-PVTZ
  Basis Set: (AUG-CC-PVTZ AUX)
    Blend: AUG-CC-PVTZ-JKFIT + DEF2-UNIVERSAL-JKFIT
  @DF-RHF Final Energy: -1081.03865703275551
    Total Energy =                      -1081.0386570327555091
 Dipole X            :       -160.8995699          152.2807490           -8.6188209
 Dipole Y            :        -79.8252427           76.1403745           -3.6848682
 Dipole Z            :          0.0000000            0.0000000            0.0000000
 Magnitude           :                                                    9.3734906
  //            Monomer A HF           //
    Molecular point group: c1
  Multiplicity = 1
  Basis Set: AUG-CC-PVTZ
    Blend: AUG-CC-PVTZ
  Basis Set: (AUG-CC-PVTZ AUX)
    Blend: AUG-CC-PVTZ-JKFIT + DEF2-UNIVERSAL-JKFIT
  @DF-RHF Final Energy:  -621.45481571879350
    Total Energy =                       -621.4548157187934976
  //            Monomer B HF           //
    Molecular point group: c1

    Geometry (in Angstrom), charge = -1, multiplicity = 1:

       Center              X                  Y                   Z               Mass
    ------------   -----------------  -----------------  -----------------  -----------------
      Gh(NA)          0.000000000000     0.000000000000     0.000000000000    22.989769282000
      Gh(CL)          0.000000000000     2.370103000000     0.000000000000    34.968852682000
         CL           4.740206000000     0.000000000000     0.000000000000    34.968852682000

  Charge       = -1
  Multiplicity = 1
  Basis Set: AUG-CC-PVTZ
    Blend: AUG-CC-PVTZ
  Basis Set: (AUG-CC-PVTZ AUX)
    Blend: AUG-CC-PVTZ-JKFIT + DEF2-UNIVERSAL-JKFIT

    Orbital Energies [Eh]
    ---------------------

    Doubly Occupied:

       1A   -104.506061     2A    -10.229768     3A     -7.695806
       4A     -7.695806     5A     -7.695799     6A     -0.733512
       7A     -0.150337     8A     -0.150337     9A     -0.150336

  @DF-RHF Final Energy:  -459.57348706850007

   => Energetics <=

    Nuclear Repulsion Energy =              0.0000000000000000
    One-Electron Energy =                -641.1314455797719347
    Two-Electron Energy =                 181.5579585112718348
    Total Energy =                       -459.5734870685000715
 Dipole X            :       -161.2385174          152.2807490           -8.9577684
 Dipole Y            :         -0.0000688            0.0000000           -0.0000688
 Dipole Z            :          0.0000000            0.0000000            0.0000000
 Magnitude           :                                                    8.9577684

    SAPT Results
  --------------------------------------------------------------------------------------------------------
    Electrostatics                 -8.32613795 [mEh]      -5.22473044 [kcal/mol]     -21.86027218 [kJ/mol]
      Elst10,r                     -8.54770137 [mEh]      -5.36376359 [kcal/mol]     -22.44198686 [kJ/mol]
      Elst12,r                      0.22156342 [mEh]       0.13903315 [kcal/mol]       0.58171469 [kJ/mol]

    Exchange                        0.18045717 [mEh]       0.11323858 [kcal/mol]       0.47379023 [kJ/mol]
      Exch10                        0.13841443 [mEh]       0.08685637 [kcal/mol]       0.36340704 [kJ/mol]
      Exch10(S^2)                   0.13840031 [mEh]       0.08684751 [kcal/mol]       0.36336996 [kJ/mol]
      Exch11(S^2)                   0.00809666 [mEh]       0.00508073 [kcal/mol]       0.02125777 [kJ/mol]
      Exch12(S^2)                   0.03394608 [mEh]       0.02130149 [kcal/mol]       0.08912542 [kJ/mol]

    Induction                      -2.16499268 [mEh]      -1.35855342 [kcal/mol]      -5.68418751 [kJ/mol]
      Ind20,r                      -2.19404788 [mEh]      -1.37678583 [kcal/mol]      -5.76047193 [kJ/mol]
      Ind22                        -0.24489876 [mEh]      -0.15367629 [kcal/mol]      -0.64298159 [kJ/mol]
      Exch-Ind20,r                  0.22276188 [mEh]       0.13978519 [kcal/mol]       0.58486123 [kJ/mol]
      Exch-Ind22                    0.02486459 [mEh]       0.01560277 [kcal/mol]       0.06528198 [kJ/mol]
      delta HF,r (2)                0.02632749 [mEh]       0.01652075 [kcal/mol]       0.06912281 [kJ/mol]

    Dispersion                     -0.47773516 [mEh]      -0.29978334 [kcal/mol]      -1.25429349 [kJ/mol]
      Disp20                       -0.45387477 [mEh]      -0.28481072 [kcal/mol]      -1.19164804 [kJ/mol]
      Disp21                        0.04819797 [mEh]       0.03024468 [kcal/mol]       0.12654376 [kJ/mol]
      Disp22 (SDQ)                 -0.00652997 [mEh]      -0.00409762 [kcal/mol]      -0.01714444 [kJ/mol]
      Disp22 (T)                   -0.08938777 [mEh]      -0.05609167 [kcal/mol]      -0.23468756 [kJ/mol]
      Est. Disp22 (T)              -0.09951972 [mEh]      -0.06244957 [kcal/mol]      -0.26128900 [kJ/mol]
      Exch-Disp20                   0.03399133 [mEh]       0.02132988 [kcal/mol]       0.08924422 [kJ/mol]

  Total HF                        -10.35424546 [mEh]      -6.49738712 [kcal/mol]     -27.18506772 [kJ/mol]
  Total SAPT0                     -10.77412890 [mEh]      -6.76086796 [kcal/mol]     -28.28747153 [kJ/mol]
  Total SAPT2                     -10.73055690 [mEh]      -6.73352612 [kcal/mol]     -28.17307327 [kJ/mol]
  Total SAPT2+                    -10.78840863 [mEh]      -6.76982862 [kcal/mol]     -28.32496295 [kJ/mol]

  Special recipe for scaled SAPT0 (see Manual):
    Electrostatics sSAPT0          -8.54770137 [mEh]      -5.36376359 [kcal/mol]     -22.44198686 [kJ/mol]
    Exchange sSAPT0                 0.13841443 [mEh]       0.08685637 [kcal/mol]       0.36340704 [kJ/mol]
    Induction sSAPT0               -1.94489031 [mEh]      -1.22043710 [kcal/mol]      -5.10630882 [kJ/mol]
    Dispersion sSAPT0              -0.41987303 [mEh]      -0.26347431 [kcal/mol]      -1.10237649 [kJ/mol]
  Total sSAPT0                    -10.77405029 [mEh]      -6.76081863 [kcal/mol]     -28.28726513 [kJ/mol]
  --------------------------------------------------------------------------------------------------------

*** Psi4 exiting successfully. Buy a developer a beer!
