                               Psi4 1.9 release

  ==> Input File <==

--------------------------------------------------------------------------
MEMORY 60 GB

molecule dimer {
0 1
Na     0.000000     0.000000     0.000000
Cl     0.000000     2.370103     0.000000
--
-1 1
Cl     2.370103     0.000000     0.000000

units ang
no_reorient
no_com
symmetry c1
}

set {
basis        aug-cc-pVTZ
scf_type     df
}

energy("sapt2+")
--------------------------------------------------------------------------

  //              Dimer HF             //
    Molecular point group: c1
  Charge       = -1
  Multiplicity = 1
  Basis Set: AUG-CC-PVTZ
    Blend: AUG-CC-PVTZ
  Basis Set: (AUG-CC-PVTZ AUX)
    Blend: AUG-CC-PVTZ-JKFIT + DEF2-UNIVERSAL-JKFIT
  @DF-RHF Final Energy: -1081.05980562573882
    Total Energy =                      -1081.0598056257388180
 Dipole X            :        -79.8693545           76.1403745           -3.7289800
 Dipole Y            :        -79.8693545           76.1403745           -3.7289800
 Dipole Z            :         -0.0000000            0.0000000           -0.0000000
 Magnitude           :                                                    5.2735741
  //            Monomer A HF           //
    Molecular point group: c1
  Multiplicity = 1
  Basis Set: AUG-CC-PVTZ
    Blend: AUG-CC-PVTZ
  Basis Set: (AUG-CC-PVTZ AUX)
    Blend: AUG-CC-PVTZ-JKFIT + DEF2-UNIVERSAL-JKFIT
  @DF-RHF Final Energy:  -621.45491054339834
    Total Energy =                       -621.4549105433983414
  //            Monomer B HF           //
    Molecular point group: c1

    Geometry (in Angstrom), charge = -1, multiplicity = 1:

       Center              X                  Y                   Z               Mass
    ------------   -----------------  -----------------  -----------------  -----------------
      Gh(NA)          0.000000000000     0.000000000000     0.000000000000    22.989769282000
      Gh(CL)          0.000000000000     2.370103000000     0.000000000000    34.968852682000
         CL           2.370103000000     0.000000000000     0.000000000000    34.968852682000

  Charge       = -1
  Multiplicity = 1
  Basis Set: AUG-CC-PVTZ
    Blend: AUG-CC-PVTZ
  Basis Set: (AUG-CC-PVTZ AUX)
    Blend: AUG-CC-PVTZ-JKFIT + DEF2-UNIVERSAL-JKFIT

    Orbital Energies [Eh]
    ---------------------

    Doubly Occupied:

       1A   -104.506484     2A    -10.229863     3A     -7.695923
       4A     -7.695917     5A     -7.695899     6A     -0.733493
       7A     -0.150334     8A     -0.150321     9A     -0.150319

  @DF-RHF Final Energy:  -459.57351445957477

   => Energetics <=

    Nuclear Repulsion Energy =              0.0000000000000000
    One-Electron Energy =                -641.1299217829748613
    Two-Electron Energy =                 181.5564073234000944
    Total Energy =                       -459.5735144595747670
 Dipole X            :        -80.6198010           76.1403745           -4.4794265
 Dipole Y            :          0.0000111            0.0000000            0.0000111
 Dipole Z            :         -0.0000000            0.0000000           -0.0000000
 Magnitude           :                                                    4.4794265

    SAPT Results
  --------------------------------------------------------------------------------------------------------
    Electrostatics                -74.71361720 [mEh]     -46.88350262 [kcal/mol]    -196.16057495 [kJ/mol]
      Elst10,r                    -72.84429395 [mEh]     -45.71048456 [kcal/mol]    -191.25266741 [kJ/mol]
      Elst12,r                     -1.86932326 [mEh]      -1.17301805 [kcal/mol]      -4.90790754 [kJ/mol]

    Exchange                       62.30489056 [mEh]      39.09690909 [kcal/mol]     163.58146764 [kJ/mol]
      Exch10                       58.43245413 [mEh]      36.66691854 [kcal/mol]     153.41438717 [kJ/mol]
      Exch10(S^2)                  57.13914243 [mEh]      35.85535320 [kcal/mol]     150.01879778 [kJ/mol]
      Exch11(S^2)                   0.16144552 [mEh]       0.10130859 [kcal/mol]       0.42387515 [kJ/mol]
      Exch12(S^2)                   3.71099092 [mEh]       2.32868196 [kcal/mol]       9.74320532 [kJ/mol]

    Induction                     -18.91786005 [mEh]     -11.87113640 [kcal/mol]     -49.66883472 [kJ/mol]
      Ind20,r                    -104.90398346 [mEh]     -65.82824346 [kcal/mol]    -275.42537062 [kJ/mol]
      Ind22                       -10.50587550 [mEh]      -6.59253641 [kcal/mol]     -27.58317232 [kJ/mol]
      Exch-Ind20,r                 85.44192602 [mEh]      53.61561803 [kcal/mol]     224.32774585 [kJ/mol]
      Exch-Ind22                    8.55679839 [mEh]       5.36947206 [kcal/mol]      22.46587109 [kJ/mol]
      delta HF,r (2)                2.49327449 [mEh]       1.56455337 [kcal/mol]       6.54609128 [kJ/mol]

    Dispersion                     -8.07275052 [mEh]      -5.06572743 [kcal/mol]     -21.19500357 [kJ/mol]
      Disp20                      -10.83512694 [mEh]      -6.79914480 [kcal/mol]     -28.44762186 [kJ/mol]
      Disp21                        1.16247347 [mEh]       0.72946311 [kcal/mol]       3.05207367 [kJ/mol]
      Disp22 (SDQ)                 -0.00092320 [mEh]      -0.00057932 [kcal/mol]      -0.00242386 [kJ/mol]
      Disp22 (T)                   -1.68931637 [mEh]      -1.06006202 [kcal/mol]      -4.43529951 [kJ/mol]
      Est. Disp22 (T)              -1.90905780 [mEh]      -1.19795186 [kcal/mol]      -5.01223057 [kJ/mol]
      Exch-Disp20                   3.50988395 [mEh]       2.20248543 [kcal/mol]       9.21519905 [kJ/mol]

  Total HF                        -31.38062277 [mEh]     -19.69163808 [kcal/mol]     -82.38981372 [kJ/mol]
  Total SAPT0                     -38.70586575 [mEh]     -24.28829745 [kcal/mol]    -101.62223653 [kJ/mol]
  Total SAPT2                     -38.65182968 [mEh]     -24.25438930 [kcal/mol]    -101.48036484 [kJ/mol]
  Total SAPT2+                    -39.39933721 [mEh]     -24.72345736 [kcal/mol]    -103.44294560 [kJ/mol]

  Special recipe for scaled SAPT0 (see Manual):
    Electrostatics sSAPT0         -72.84429395 [mEh]     -45.71048456 [kcal/mol]    -191.25266741 [kJ/mol]
    Exchange sSAPT0                58.43245413 [mEh]      36.66691854 [kcal/mol]     153.41438717 [kJ/mol]
    Induction sSAPT0              -11.03468516 [mEh]      -6.92436948 [kcal/mol]     -28.97156189 [kJ/mol]
    Dispersion sSAPT0              -7.08147514 [mEh]      -4.44369274 [kcal/mol]     -18.59241041 [kJ/mol]
  Total sSAPT0                    -32.52800011 [mEh]     -20.41162823 [kcal/mol]     -85.40225253 [kJ/mol]
  --------------------------------------------------------------------------------------------------------

*** Psi4 exiting successfully. Buy a developer a beer!
