                               Psi4 1.9 release

  ==> Input File <==

--------------------------------------------------------------------------
MEMORY 60 GB

molecule dimer {
0 1
Na     0.000000     0.000000     0.000000
Cl     0.000000     2.370103     0.000000
--
-1 1
Cl     2.607113     0.000000     0.000000

units ang
no_reorient
no_com
symmetry c1
}

set {
basis        aug-cc-pVTZ
scf_type     df
}

energy("sapt2+")
--------------------------------------------------------------------------

  //              Dimer HF             //
    Molecular point group: c1
  Charge       = -1
  Multiplicity = 1
  Basis Set: AUG-CC-PVTZ
    Blend: AUG-CC-PVTZ
  Basis Set: (AUG-CC-PVTZ AUX)
    Blend: AUG-CC-PVTZ-JKFIT + DEF2-UNIVERSAL-JKFIT
  @DF-RHF Final Energy: -1081.06483905769278
    Total Energy =                      -1081.0648390576930069
 Dipole X            :        -87.9293190           83.7544023           -4.1749167
 Dipole Y            :        -79.8591718           76.1403745           -3.7187973
 Dipole Z            :         -0.0000000            0.0000000           -0.0000000
 Magnitude           :                                                    5.5910091
  //            Monomer A HF           //
    Molecular point group: c1
  Multiplicity = 1
  Basis Set: AUG-CC-PVTZ
    Blend: AUG-CC-PVTZ
  Basis Set: (AUG-CC-PVTZ AUX)
    Blend: AUG-CC-PVTZ-JKFIT + DEF2-UNIVERSAL-JKFIT
  @DF-RHF Final Energy:  -621.45489051081483
    Total Energy =                       -621.4548905108148347
  //            Monomer B HF           //
    Molecular point group: c1

    Geometry (in Angstrom), charge = -1, multiplicity = 1:

       Center              X                  Y                   Z               Mass
    ------------   -----------------  -----------------  -----------------  -----------------
      Gh(NA)          0.000000000000     0.000000000000     0.000000000000    22.989769282000
      Gh(CL)          0.000000000000     2.370103000000     0.000000000000    34.968852682000
         CL           2.607113000000     0.000000000000     0.000000000000    34.968852682000

  Charge       = -1
  Multiplicity = 1
  Basis Set: AUG-CC-PVTZ
    Blend: AUG-CC-PVTZ
  Basis Set: (AUG-CC-PVTZ AUX)
    Blend: AUG-CC-PVTZ-JKFIT + DEF2-UNIVERSAL-JKFIT

    Orbital Energies [Eh]
    ---------------------

    Doubly Occupied:

       1A   -104.506432     2A    -10.229856     3A     -7.695912
       4A     -7.695908     5A     -7.695886     6A     -0.733496
       7A     -0.150334     8A     -0.150324     9A     -0.150322

  @DF-RHF Final Energy:  -459.57350908705547

   => Energetics <=

    Nuclear Repulsion Energy =              0.0000000000000000
    One-Electron Energy =                -641.1300772710850424
    Two-Electron Energy =                 181.5565681840296008
    Total Energy =                       -459.5735090870554131
 Dipole X            :        -88.6815711           83.7544023           -4.9271688
 Dipole Y            :          0.0000178            0.0000000            0.0000178
 Dipole Z            :         -0.0000000            0.0000000           -0.0000000
 Magnitude           :                                                    4.9271688

    SAPT Results
  --------------------------------------------------------------------------------------------------------
    Electrostatics                -54.38965548 [mEh]     -34.13002409 [kcal/mol]    -142.80002079 [kJ/mol]
      Elst10,r                    -53.19666528 [mEh]     -33.38141144 [kcal/mol]    -139.66782545 [kJ/mol]
      Elst12,r                     -1.19299020 [mEh]      -0.74861265 [kcal/mol]      -3.13219534 [kJ/mol]

    Exchange                       33.67093315 [mEh]      21.12882955 [kcal/mol]      88.40302282 [kJ/mol]
      Exch10                       30.76886494 [mEh]      19.30775425 [kcal/mol]      80.78364377 [kJ/mol]
      Exch10(S^2)                  30.34857203 [mEh]      19.04401646 [kcal/mol]      79.68016488 [kJ/mol]
      Exch11(S^2)                   0.35733133 [mEh]       0.22422880 [kcal/mol]       0.93817328 [kJ/mol]
      Exch12(S^2)                   2.54473688 [mEh]       1.59684650 [kcal/mol]       6.68120577 [kJ/mol]

    Induction                     -15.69711121 [mEh]      -9.85008599 [kcal/mol]     -41.21275980 [kJ/mol]
      Ind20,r                     -61.15032917 [mEh]     -38.37241088 [kcal/mol]    -160.55016711 [kJ/mol]
      Ind22                        -6.89476073 [mEh]      -4.32652767 [kcal/mol]     -18.10219179 [kJ/mol]
      Exch-Ind20,r                 46.20188761 [mEh]      28.99212218 [kcal/mol]     121.30303920 [kJ/mol]
      Exch-Ind22                    5.20930900 [mEh]       3.26889075 [kcal/mol]      13.67703890 [kJ/mol]
      delta HF,r (2)                0.93678208 [mEh]       0.58783963 [kcal/mol]       2.45952101 [kJ/mol]

    Dispersion                     -6.12139708 [mEh]      -3.84123466 [kcal/mol]     -16.07172582 [kJ/mol]
      Disp20                       -7.81409082 [mEh]      -4.90341602 [kcal/mol]     -20.51589262 [kJ/mol]
      Disp21                        0.79957831 [mEh]       0.50174297 [kcal/mol]       2.09929257 [kJ/mol]
      Disp22 (SDQ)                 -0.01231811 [mEh]      -0.00772973 [kcal/mol]      -0.03234119 [kJ/mol]
      Disp22 (T)                   -1.25890037 [mEh]      -0.78997191 [kcal/mol]      -3.30524247 [kJ/mol]
      Est. Disp22 (T)              -1.43192576 [mEh]      -0.89854698 [kcal/mol]      -3.75952057 [kJ/mol]
      Exch-Disp20                   2.33735930 [mEh]       1.46671510 [kcal/mol]       6.13673600 [kJ/mol]

  Total HF                        -36.43945982 [mEh]     -22.86610626 [kcal/mol]     -95.67178858 [kJ/mol]
  Total SAPT0                     -41.91619134 [mEh]     -26.30280717 [kcal/mol]    -110.05094521 [kJ/mol]
  Total SAPT2                     -41.89256505 [mEh]     -26.28798145 [kcal/mol]    -109.98891439 [kJ/mol]
  Total SAPT2+                    -42.53723061 [mEh]     -26.69251520 [kcal/mol]    -111.68148359 [kJ/mol]

  Special recipe for scaled SAPT0 (see Manual):
    Electrostatics sSAPT0         -53.19666528 [mEh]     -33.38141144 [kcal/mol]    -139.66782545 [kJ/mol]
    Exchange sSAPT0                30.76886494 [mEh]      19.30775425 [kcal/mol]      80.78364377 [kJ/mol]
    Induction sSAPT0              -12.06542404 [mEh]      -7.57116789 [kcal/mol]     -31.67776645 [kJ/mol]
    Dispersion sSAPT0              -5.37827122 [mEh]      -3.37491615 [kcal/mol]     -14.12064915 [kJ/mol]
  Total sSAPT0                    -39.87149560 [mEh]     -25.01974122 [kcal/mol]    -104.68259728 [kJ/mol]
  --------------------------------------------------------------------------------------------------------

*** Psi4 exiting successfully. Buy a developer a beer!
