                               Psi4 1.9 release

  ==> Input File <==

--------------------------------------------------------------------------
MEMORY 60 GB

molecule dimer {
0 1
Na     0.000000     0.000000     0.000000
Cl     0.000000     2.370103     0.000000
--
-1 1
Cl     3.555154     0.000000     0.000000

units ang
no_reorient
no_com
symmetry c1
}

set {
basis        aug-cc-pVTZ
scf_type     df
}

energy("sapt2+")
--------------------------------------------------------------------------

  //              Dimer HF             //
    Molecular point group: c1
  Charge       = -1
  Multiplicity = 1
  Basis Set: AUG-CC-PVTZ
    Blend: AUG-CC-PVTZ
  Basis Set: (AUG-CC-PVTZ AUX)
    Blend: AUG-CC-PVTZ-JKFIT + DEF2-UNIVERSAL-JKFIT
  @DF-RHF Final Energy: -1081.05135422468925
    Total Energy =                      -1081.0513542246890211
 Dipole X            :       -120.3521102          114.2105457           -6.1415645
 Dipole Y            :        -79.8285888           76.1403745           -3.6882143
 Dipole Z            :         -0.0000000            0.0000000           -0.0000000
 Magnitude           :                                                    7.1639192
  //            Monomer A HF           //
    Molecular point group: c1
  Multiplicity = 1
  Basis Set: AUG-CC-PVTZ
    Blend: AUG-CC-PVTZ
  Basis Set: (AUG-CC-PVTZ AUX)
    Blend: AUG-CC-PVTZ-JKFIT + DEF2-UNIVERSAL-JKFIT
  @DF-RHF Final Energy:  -621.45482409847375
    Total Energy =                       -621.4548240984737504
  //            Monomer B HF           //
    Molecular point group: c1

    Geometry (in Angstrom), charge = -1, multiplicity = 1:

       Center              X                  Y                   Z               Mass
    ------------   -----------------  -----------------  -----------------  -----------------
      Gh(NA)          0.000000000000     0.000000000000     0.000000000000    22.989769282000
      Gh(CL)          0.000000000000     2.370103000000     0.000000000000    34.968852682000
         CL           3.555154000000     0.000000000000     0.000000000000    34.968852682000

  Charge       = -1
  Multiplicity = 1
  Basis Set: AUG-CC-PVTZ
    Blend: AUG-CC-PVTZ
  Basis Set: (AUG-CC-PVTZ AUX)
    Blend: AUG-CC-PVTZ-JKFIT + DEF2-UNIVERSAL-JKFIT

    Orbital Energies [Eh]
    ---------------------

    Doubly Occupied:

       1A   -104.506179     2A    -10.229796     3A     -7.695840
       4A     -7.695838     5A     -7.695824     6A     -0.733506
       7A     -0.150338     8A     -0.150331     9A     -0.150330

  @DF-RHF Final Energy:  -459.57349549617965

   => Energetics <=

    Nuclear Repulsion Energy =              0.0000000000000000
    One-Electron Energy =                -641.1310246437085425
    Two-Electron Energy =                 181.5575291475289248
    Total Energy =                       -459.5734954961795893
 Dipole X            :       -120.9290060          114.2105457           -6.7184603
 Dipole Y            :         -0.0000299            0.0000000           -0.0000299
 Dipole Z            :         -0.0000000            0.0000000           -0.0000000
 Magnitude           :                                                    6.7184603

    SAPT Results
  --------------------------------------------------------------------------------------------------------
    Electrostatics                -19.77011538 [mEh]     -12.40593470 [kcal/mol]     -51.90643079 [kJ/mol]
      Elst10,r                    -19.84593741 [mEh]     -12.45351374 [kcal/mol]     -52.10550148 [kJ/mol]
      Elst12,r                      0.07582202 [mEh]       0.04757904 [kcal/mol]       0.19907069 [kJ/mol]

    Exchange                        3.17832290 [mEh]       1.99442773 [kcal/mol]       8.34468561 [kJ/mol]
      Exch10                        2.65632660 [mEh]       1.66687011 [kcal/mol]       6.97418454 [kJ/mol]
      Exch10(S^2)                   2.65143397 [mEh]       1.66379993 [kcal/mol]       6.96133892 [kJ/mol]
      Exch11(S^2)                   0.10604675 [mEh]       0.06654534 [kcal/mol]       0.27842570 [kJ/mol]
      Exch12(S^2)                   0.41594954 [mEh]       0.26101228 [kcal/mol]       1.09207538 [kJ/mol]

    Induction                      -6.62789876 [mEh]      -4.15906926 [kcal/mol]     -17.40154578 [kJ/mol]
      Ind20,r                      -9.98723451 [mEh]      -6.26708427 [kcal/mol]     -26.22148060 [kJ/mol]
      Ind22                        -1.32630226 [mEh]      -0.83226723 [kcal/mol]      -3.48220610 [kJ/mol]
      Exch-Ind20,r                  4.09204632 [mEh]       2.56779783 [kcal/mol]      10.74366614 [kJ/mol]
      Exch-Ind22                    0.54342273 [mEh]       0.34100291 [kcal/mol]       1.42675619 [kJ/mol]
      delta HF,r (2)                0.05016896 [mEh]       0.03148150 [kcal/mol]       0.13171858 [kJ/mol]

    Dispersion                     -1.97377152 [mEh]      -1.23856033 [kcal/mol]      -5.18213640 [kJ/mol]
      Disp20                       -2.11245969 [mEh]      -1.32558847 [kcal/mol]      -5.54626215 [kJ/mol]
      Disp21                        0.19596988 [mEh]       0.12297295 [kcal/mol]       0.51451884 [kJ/mol]
      Disp22 (SDQ)                 -0.02111627 [mEh]      -0.01325066 [kcal/mol]      -0.05544076 [kJ/mol]
      Disp22 (T)                   -0.37606544 [mEh]      -0.23598462 [kcal/mol]      -0.98735967 [kJ/mol]
      Est. Disp22 (T)              -0.43438326 [mEh]      -0.27257961 [kcal/mol]      -1.14047310 [kJ/mol]
      Exch-Disp20                   0.39821783 [mEh]       0.24988546 [kcal/mol]       1.04552077 [kJ/mol]

  Total HF                        -23.03463004 [mEh]     -14.45444857 [kcal/mol]     -60.47741283 [kJ/mol]
  Total SAPT0                     -24.74887189 [mEh]     -15.53015158 [kcal/mol]     -64.97815421 [kJ/mol]
  Total SAPT2                     -24.93393310 [mEh]     -15.64627924 [kcal/mol]     -65.46403235 [kJ/mol]
  Total SAPT2+                    -25.19346276 [mEh]     -15.80913656 [kcal/mol]     -66.14542737 [kJ/mol]

  Special recipe for scaled SAPT0 (see Manual):
    Electrostatics sSAPT0         -19.84593741 [mEh]     -12.45351374 [kcal/mol]     -52.10550148 [kJ/mol]
    Exchange sSAPT0                 2.65632660 [mEh]       1.66687011 [kcal/mol]       6.97418454 [kJ/mol]
    Induction sSAPT0               -5.82232451 [mEh]      -3.65356379 [kcal/mol]     -15.28651088 [kJ/mol]
    Dispersion sSAPT0              -1.71203332 [mEh]      -1.07431713 [kcal/mol]      -4.49494286 [kJ/mol]
  Total sSAPT0                    -24.72396863 [mEh]     -15.51452454 [kcal/mol]     -64.91277069 [kJ/mol]
  --------------------------------------------------------------------------------------------------------

*** Psi4 exiting successfully. Buy a developer a beer!
