                               Psi4 1.9 release

  ==> Input File <==

--------------------------------------------------------------------------
MEMORY 60 GB

molecule dimer {
0 1
Br     0.000000     0.000000     0.000000
Na     0.000000     2.514159     0.000000
--
1 1
Na     2.514159     0.000000     0.000000

units ang
no_reorient
no_com
symmetry c1
}

set {
basis        aug-cc-pVTZ
scf_type     df
}

energy("sapt2+")
--------------------------------------------------------------------------

  //              Dimer HF             //
    Molecular point group: c1
  Charge       = 1
  Multiplicity = 1
  Basis Set: AUG-CC-PVTZ
    Blend: AUG-CC-PVTZ
  Basis Set: (AUG-CC-PVTZ AUX)
    Blend: AUG-CC-PVTZ-JKFIT + DEF2-UNIVERSAL-JKFIT
  @DF-RHF Final Energy: -2896.12878056046065
    Total Energy =                      -2896.1287805604606547
 Dipole X            :        -48.4182274           52.2617914            3.8435640
 Dipole Y            :        -48.4182274           52.2617914            3.8435640
 Dipole Z            :         -0.0000000            0.0000000           -0.0000000
 Magnitude           :                                                    5.4356203
  //            Monomer A HF           //
    Molecular point group: c1
  Multiplicity = 1
  Basis Set: AUG-CC-PVTZ
    Blend: AUG-CC-PVTZ
  Basis Set: (AUG-CC-PVTZ AUX)
    Blend: AUG-CC-PVTZ-JKFIT + DEF2-UNIVERSAL-JKFIT
  @DF-RHF Final Energy: -2734.40592900127513
    Total Energy =                      -2734.4059290012755810
  //            Monomer B HF           //
    Molecular point group: c1

    Geometry (in Angstrom), charge = 1, multiplicity = 1:

       Center              X                  Y                   Z               Mass
    ------------   -----------------  -----------------  -----------------  -----------------
      Gh(BR)          0.000000000000     0.000000000000     0.000000000000    78.918337600000
      Gh(NA)          0.000000000000     2.514159000000     0.000000000000    22.989769282000
         NA           2.514159000000     0.000000000000     0.000000000000    22.989769282000

  Charge       = 1
  Multiplicity = 1
  Basis Set: AUG-CC-PVTZ
    Blend: AUG-CC-PVTZ
  Basis Set: (AUG-CC-PVTZ AUX)
    Blend: AUG-CC-PVTZ-JKFIT + DEF2-UNIVERSAL-JKFIT

    Orbital Energies [Eh]
    ---------------------

    Doubly Occupied:

       1A    -40.762737     2A     -3.074868     3A     -1.798135
       4A     -1.798073     5A     -1.798013

  @DF-RHF Final Energy:  -161.67604282910156

   => Energetics <=

    Nuclear Repulsion Energy =              0.0000000000000000
    One-Electron Energy =                -224.8884358349840227
    Two-Electron Energy =                  63.2123930058824683
    Total Energy =                       -161.6760428291015614
 Dipole X            :        -47.5113447           52.2617914            4.7504467
 Dipole Y            :          0.0001143            0.0000000            0.0001143
 Dipole Z            :          0.0000000            0.0000000            0.0000000
 Magnitude           :                                                    4.7504468

    SAPT Results
  --------------------------------------------------------------------------------------------------------
    Electrostatics                -62.75678504 [mEh]     -39.38047716 [kcal/mol]    -164.76791643 [kJ/mol]
      Elst10,r                    -63.10325893 [mEh]     -39.59789280 [kcal/mol]    -165.67758349 [kJ/mol]
      Elst12,r                      0.34647388 [mEh]       0.21741564 [kcal/mol]       0.90966706 [kJ/mol]

    Exchange                       37.19244909 [mEh]      23.33861415 [kcal/mol]      97.64876162 [kJ/mol]
      Exch10                       36.33309937 [mEh]      22.79936407 [kcal/mol]      95.39253925 [kJ/mol]
      Exch10(S^2)                  36.00037002 [mEh]      22.59057325 [kcal/mol]      94.51895846 [kJ/mol]
      Exch11(S^2)                  -0.58754054 [mEh]      -0.36868726 [kcal/mol]      -1.54258748 [kJ/mol]
      Exch12(S^2)                   1.44689026 [mEh]       0.90793734 [kcal/mol]       3.79880985 [kJ/mol]

    Induction                     -21.59789050 [mEh]     -13.55288090 [kcal/mol]     -56.70525369 [kJ/mol]
      Ind20,r                     -85.07118920 [mEh]     -53.38297717 [kcal/mol]    -223.35437647 [kJ/mol]
      Ind22                        -5.30920313 [mEh]      -3.33157526 [kcal/mol]     -13.93931089 [kJ/mol]
      Exch-Ind20,r                 60.08566855 [mEh]      37.70432625 [kcal/mol]     157.75490105 [kJ/mol]
      Exch-Ind22                    3.74988316 [mEh]       2.35308721 [kcal/mol]       9.84531687 [kJ/mol]
      delta HF,r (2)                4.94695012 [mEh]       3.10425807 [kcal/mol]      12.98821576 [kJ/mol]

    Dispersion                     -1.10944580 [mEh]      -0.69618775 [kcal/mol]      -2.91284953 [kJ/mol]
      Disp20                       -1.30303801 [mEh]      -0.81766870 [kcal/mol]      -3.42112583 [kJ/mol]
      Disp21                       -0.01345352 [mEh]      -0.00844221 [kcal/mol]      -0.03532222 [kJ/mol]
      Disp22 (SDQ)                 -0.04232370 [mEh]      -0.02655852 [kcal/mol]      -0.11112087 [kJ/mol]
      Disp22 (T)                   -0.09258093 [mEh]      -0.05809541 [kcal/mol]      -0.24307120 [kJ/mol]
      Est. Disp22 (T)              -0.11135221 [mEh]      -0.06987457 [kcal/mol]      -0.29235520 [kJ/mol]
      Exch-Disp20                   0.36072166 [mEh]       0.22635626 [kcal/mol]       0.94707458 [kJ/mol]

  Total HF                        -46.80873008 [mEh]     -29.37292158 [kcal/mol]    -122.89630390 [kJ/mol]
  Total SAPT0                     -47.75104644 [mEh]     -29.96423402 [kcal/mol]    -125.37035515 [kJ/mol]
  Total SAPT2                     -48.10454281 [mEh]     -30.18605635 [kcal/mol]    -126.29845975 [kJ/mol]
  Total SAPT2+                    -48.27167225 [mEh]     -30.29093165 [kcal/mol]    -126.73725804 [kJ/mol]

  Special recipe for scaled SAPT0 (see Manual):
    Electrostatics sSAPT0         -63.10325893 [mEh]     -39.59789280 [kcal/mol]    -165.67758349 [kJ/mol]
    Exchange sSAPT0                36.33309937 [mEh]      22.79936407 [kcal/mol]      95.39253925 [kJ/mol]
    Induction sSAPT0              -18.35712023 [mEh]     -11.51926685 [kcal/mol]     -48.19661252 [kJ/mol]
    Dispersion sSAPT0              -0.93222184 [mEh]      -0.58497804 [kcal/mol]      -2.44754811 [kJ/mol]
  Total sSAPT0                    -46.05950163 [mEh]     -28.90277363 [kcal/mol]    -120.92920486 [kJ/mol]
  --------------------------------------------------------------------------------------------------------

*** Psi4 exiting successfully. Buy a developer a beer!
