                               Psi4 1.9 release

  ==> Input File <==

--------------------------------------------------------------------------
MEMORY 60 GB

molecule dimer {
0 1
Br     0.000000     0.000000     0.000000
Na     0.000000     2.514159     0.000000
--
1 1
Na     2.765575     0.000000     0.000000

units ang
no_reorient
no_com
symmetry c1
}

set {
basis        aug-cc-pVTZ
scf_type     df
}

energy("sapt2+")
--------------------------------------------------------------------------

  //              Dimer HF             //
    Molecular point group: c1
  Charge       = 1
  Multiplicity = 1
  Basis Set: AUG-CC-PVTZ
    Blend: AUG-CC-PVTZ
  Basis Set: (AUG-CC-PVTZ AUX)
    Blend: AUG-CC-PVTZ-JKFIT + DEF2-UNIVERSAL-JKFIT
  @DF-RHF Final Energy: -2896.13140682291805
    Total Energy =                      -2896.1314068229175973
 Dipole X            :        -53.1817427           57.4879726            4.3062299
 Dipole Y            :        -48.4315916           52.2617914            3.8301998
 Dipole Z            :         -0.0000000            0.0000000           -0.0000000
 Magnitude           :                                                    5.7631629
  //            Monomer A HF           //
    Molecular point group: c1
  Multiplicity = 1
  Basis Set: AUG-CC-PVTZ
    Blend: AUG-CC-PVTZ
  Basis Set: (AUG-CC-PVTZ AUX)
    Blend: AUG-CC-PVTZ-JKFIT + DEF2-UNIVERSAL-JKFIT
  @DF-RHF Final Energy: -2734.40592120256360
    Total Energy =                      -2734.4059212025640591
  //            Monomer B HF           //
    Molecular point group: c1

    Geometry (in Angstrom), charge = 1, multiplicity = 1:

       Center              X                  Y                   Z               Mass
    ------------   -----------------  -----------------  -----------------  -----------------
      Gh(BR)          0.000000000000     0.000000000000     0.000000000000    78.918337600000
      Gh(NA)          0.000000000000     2.514159000000     0.000000000000    22.989769282000
         NA           2.765575000000     0.000000000000     0.000000000000    22.989769282000

  Charge       = 1
  Multiplicity = 1
  Basis Set: AUG-CC-PVTZ
    Blend: AUG-CC-PVTZ
  Basis Set: (AUG-CC-PVTZ AUX)
    Blend: AUG-CC-PVTZ-JKFIT + DEF2-UNIVERSAL-JKFIT

    Orbital Energies [Eh]
    ---------------------

    Doubly Occupied:

       1A    -40.762900     2A     -3.074942     3A     -1.798199
       4A     -1.798133     5A     -1.798085

  @DF-RHF Final Energy:  -161.67603890942613

   => Energetics <=

    Nuclear Repulsion Energy =              0.0000000000000000
    One-Electron Energy =                -224.8875593192980205
    Two-Electron Energy =                  63.2115204098719019
    Total Energy =                       -161.6760389094261257
 Dipole X            :        -52.2624381           57.4879726            5.2255345
 Dipole Y            :          0.0000979            0.0000000            0.0000979
 Dipole Z            :         -0.0000000            0.0000000           -0.0000000
 Magnitude           :                                                    5.2255345

    SAPT Results
  --------------------------------------------------------------------------------------------------------
    Electrostatics                -48.58893184 [mEh]     -30.49001505 [kcal/mol]    -127.57022297 [kJ/mol]
      Elst10,r                    -48.87660326 [mEh]     -30.67053159 [kcal/mol]    -128.32550418 [kJ/mol]
      Elst12,r                      0.28767142 [mEh]       0.18051654 [kcal/mol]       0.75528120 [kJ/mol]

    Exchange                       17.34951163 [mEh]      10.88698291 [kcal/mol]      45.55113652 [kJ/mol]
      Exch10                       16.69202011 [mEh]      10.47440076 [kcal/mol]      43.82489276 [kJ/mol]
      Exch10(S^2)                  16.61878131 [mEh]      10.42844271 [kcal/mol]      43.63260432 [kJ/mol]
      Exch11(S^2)                  -0.21971876 [mEh]      -0.13787560 [kcal/mol]      -0.57687153 [kJ/mol]
      Exch12(S^2)                   0.87721028 [mEh]       0.55045776 [kcal/mol]       2.30311528 [kJ/mol]

    Induction                     -18.65884053 [mEh]     -11.70859920 [kcal/mol]     -48.98877907 [kJ/mol]
      Ind20,r                     -49.56256128 [mEh]     -31.10097675 [kcal/mol]    -130.12648670 [kJ/mol]
      Ind22                        -3.44686985 [mEh]      -2.16294348 [kcal/mol]      -9.04975553 [kJ/mol]
      Exch-Ind20,r                 29.47922058 [mEh]      18.49849020 [kcal/mol]      77.39768298 [kJ/mol]
      Exch-Ind22                    2.05015709 [mEh]       1.28649300 [kcal/mol]       5.38268670 [kJ/mol]
      delta HF,r (2)                2.82121291 [mEh]       1.77033783 [kcal/mol]       7.40709348 [kJ/mol]

    Dispersion                     -0.70345791 [mEh]      -0.44142650 [kcal/mol]      -1.84692850 [kJ/mol]
      Disp20                       -0.76354218 [mEh]      -0.47912995 [kcal/mol]      -2.00467971 [kJ/mol]
      Disp21                       -0.01669282 [mEh]      -0.01047490 [kcal/mol]      -0.04382698 [kJ/mol]
      Disp22 (SDQ)                 -0.02751914 [mEh]      -0.01726852 [kcal/mol]      -0.07225149 [kJ/mol]
      Disp22 (T)                   -0.05563612 [mEh]      -0.03491220 [kcal/mol]      -0.14607263 [kJ/mol]
      Est. Disp22 (T)              -0.06618131 [mEh]      -0.04152940 [kcal/mol]      -0.17375902 [kJ/mol]
      Exch-Disp20                   0.17047753 [mEh]       0.10697627 [kcal/mol]       0.44758870 [kJ/mol]

  Total HF                        -49.44671093 [mEh]     -31.02827955 [kcal/mol]    -129.82232166 [kJ/mol]
  Total SAPT0                     -50.03977557 [mEh]     -31.40043324 [kcal/mol]    -131.37941267 [kJ/mol]
  Total SAPT2                     -50.49132539 [mEh]     -31.68378502 [kcal/mol]    -132.56495654 [kJ/mol]
  Total SAPT2+                    -50.60171865 [mEh]     -31.75305784 [kcal/mol]    -132.85479402 [kJ/mol]

  Special recipe for scaled SAPT0 (see Manual):
    Electrostatics sSAPT0         -48.87660326 [mEh]     -30.67053159 [kcal/mol]    -128.32550418 [kJ/mol]
    Exchange sSAPT0                16.69202011 [mEh]      10.47440076 [kcal/mol]      43.82489276 [kJ/mol]
    Induction sSAPT0              -16.87066378 [mEh]     -10.58650135 [kcal/mol]     -44.29392166 [kJ/mol]
    Dispersion sSAPT0              -0.59080082 [mEh]      -0.37073311 [kcal/mol]      -1.55114734 [kJ/mol]
  Total sSAPT0                    -49.64604775 [mEh]     -31.15336530 [kcal/mol]    -130.34568041 [kJ/mol]
  --------------------------------------------------------------------------------------------------------

*** Psi4 exiting successfully. Buy a developer a beer!
