                               Psi4 1.9 release

  ==> Input File <==

--------------------------------------------------------------------------
MEMORY 60 GB

molecule dimer {
0 1
Br     0.000000     0.000000     0.000000
Na     0.000000     2.514159     0.000000
--
1 1
Na     3.016991     0.000000     0.000000

units ang
no_reorient
no_com
symmetry c1
}

set {
basis        aug-cc-pVTZ
scf_type     df
}

energy("sapt2+")
--------------------------------------------------------------------------

  //              Dimer HF             //
    Molecular point group: c1
  Charge       = 1
  Multiplicity = 1
  Basis Set: AUG-CC-PVTZ
    Blend: AUG-CC-PVTZ
  Basis Set: (AUG-CC-PVTZ AUX)
    Blend: AUG-CC-PVTZ-JKFIT + DEF2-UNIVERSAL-JKFIT
  @DF-RHF Final Energy: -2896.12791163215434
    Total Energy =                      -2896.1279116321547917
 Dipole X            :        -57.9131458           62.7141538            4.8010081
 Dipole Y            :        -48.4438599           52.2617914            3.8179315
 Dipole Z            :         -0.0000000            0.0000000           -0.0000000
 Magnitude           :                                                    6.1340264
  //            Monomer A HF           //
    Molecular point group: c1
  Multiplicity = 1
  Basis Set: AUG-CC-PVTZ
    Blend: AUG-CC-PVTZ
  Basis Set: (AUG-CC-PVTZ AUX)
    Blend: AUG-CC-PVTZ-JKFIT + DEF2-UNIVERSAL-JKFIT
  @DF-RHF Final Energy: -2734.40591332656913
    Total Energy =                      -2734.4059133265686796
  //            Monomer B HF           //
    Molecular point group: c1

    Geometry (in Angstrom), charge = 1, multiplicity = 1:

       Center              X                  Y                   Z               Mass
    ------------   -----------------  -----------------  -----------------  -----------------
      Gh(BR)          0.000000000000     0.000000000000     0.000000000000    78.918337600000
      Gh(NA)          0.000000000000     2.514159000000     0.000000000000    22.989769282000
         NA           3.016991000000     0.000000000000     0.000000000000    22.989769282000

  Charge       = 1
  Multiplicity = 1
  Basis Set: AUG-CC-PVTZ
    Blend: AUG-CC-PVTZ
  Basis Set: (AUG-CC-PVTZ AUX)
    Blend: AUG-CC-PVTZ-JKFIT + DEF2-UNIVERSAL-JKFIT

    Orbital Energies [Eh]
    ---------------------

    Doubly Occupied:

       1A    -40.762962     2A     -3.074976     3A     -1.798242
       4A     -1.798151     5A     -1.798113

  @DF-RHF Final Energy:  -161.67603653823690

   => Energetics <=

    Nuclear Repulsion Energy =              0.0000000000000000
    One-Electron Energy =                -224.8871867728035738
    Two-Electron Energy =                  63.2111502345666452
    Total Energy =                       -161.6760365382369287
 Dipole X            :        -57.0135291           62.7141538            5.7006247
 Dipole Y            :          0.0000914            0.0000000            0.0000914
 Dipole Z            :          0.0000000            0.0000000            0.0000000
 Magnitude           :                                                    5.7006247

    SAPT Results
  --------------------------------------------------------------------------------------------------------
    Electrostatics                -38.79921238 [mEh]     -24.34687335 [kcal/mol]    -101.86731808 [kJ/mol]
      Elst10,r                    -39.04119054 [mEh]     -24.49871693 [kcal/mol]    -102.50263164 [kJ/mol]
      Elst12,r                      0.24197815 [mEh]       0.15184358 [kcal/mol]       0.63531356 [kJ/mol]

    Exchange                        8.14400498 [mEh]       5.11044028 [kcal/mol]      21.38208212 [kJ/mol]
      Exch10                        7.72112199 [mEh]       4.84507720 [kcal/mol]      20.27180299 [kJ/mol]
      Exch10(S^2)                   7.70492707 [mEh]       4.83491473 [kcal/mol]      20.22928323 [kJ/mol]
      Exch11(S^2)                  -0.08528833 [mEh]      -0.05351923 [kcal/mol]      -0.22392447 [kJ/mol]
      Exch12(S^2)                   0.50817131 [mEh]       0.31888231 [kcal/mol]       1.33420359 [kJ/mol]

    Induction                     -15.83090966 [mEh]      -9.93404579 [kcal/mol]     -41.56404759 [kJ/mol]
      Ind20,r                     -30.36930737 [mEh]     -19.05702809 [kcal/mol]     -79.73460552 [kJ/mol]
      Ind22                        -2.27067577 [mEh]      -1.42487055 [kcal/mol]      -5.96165840 [kJ/mol]
      Exch-Ind20,r                 14.46412587 [mEh]       9.07637601 [kcal/mol]      37.97555725 [kJ/mol]
      Exch-Ind22                    1.08146490 [mEh]       0.67862947 [kcal/mol]       2.83938572 [kJ/mol]
      delta HF,r (2)                1.26348270 [mEh]       0.79284736 [kcal/mol]       3.31727337 [kJ/mol]

    Dispersion                     -0.44873971 [mEh]      -0.28158842 [kcal/mol]      -1.17816593 [kJ/mol]
      Disp20                       -0.45887965 [mEh]      -0.28795133 [kcal/mol]      -1.20478835 [kJ/mol]
      Disp21                       -0.01341211 [mEh]      -0.00841623 [kcal/mol]      -0.03521350 [kJ/mol]
      Disp22 (SDQ)                 -0.01841192 [mEh]      -0.01155366 [kcal/mol]      -0.04834049 [kJ/mol]
      Disp22 (T)                   -0.03398191 [mEh]      -0.02132397 [kcal/mol]      -0.08921948 [kJ/mol]
      Est. Disp22 (T)              -0.04048537 [mEh]      -0.02540495 [kcal/mol]      -0.10629431 [kJ/mol]
      Exch-Disp20                   0.08244934 [mEh]       0.05173774 [kcal/mol]       0.21647072 [kJ/mol]

  Total HF                        -45.96176735 [mEh]     -28.84144444 [kcal/mol]    -120.67260355 [kJ/mol]
  Total SAPT0                     -46.33819765 [mEh]     -29.07765802 [kcal/mol]    -121.66092117 [kJ/mol]
  Total SAPT2                     -46.86254738 [mEh]     -29.40669244 [kcal/mol]    -123.03760118 [kJ/mol]
  Total SAPT2+                    -46.93485678 [mEh]     -29.45206728 [kcal/mol]    -123.22744949 [kJ/mol]

  Special recipe for scaled SAPT0 (see Manual):
    Electrostatics sSAPT0         -39.04119054 [mEh]     -24.49871693 [kcal/mol]    -102.50263164 [kJ/mol]
    Exchange sSAPT0                 7.72112199 [mEh]       4.84507720 [kcal/mol]      20.27180299 [kJ/mol]
    Induction sSAPT0              -14.55030087 [mEh]      -9.13045164 [kcal/mol]     -38.20180967 [kJ/mol]
    Dispersion sSAPT0              -0.37590931 [mEh]      -0.23588665 [kcal/mol]      -0.98694976 [kJ/mol]
  Total sSAPT0                    -46.24627873 [mEh]     -29.01997803 [kcal/mol]    -121.41958807 [kJ/mol]
  --------------------------------------------------------------------------------------------------------

*** Psi4 exiting successfully. Buy a developer a beer!
