                               Psi4 1.9 release

  ==> Input File <==

--------------------------------------------------------------------------
MEMORY 60 GB

molecule dimer {
0 1
Br     0.000000     0.000000     0.000000
Na     0.000000     2.514159     0.000000
--
1 1
Na     5.028318     0.000000     0.000000

units ang
no_reorient
no_com
symmetry c1
}

set {
basis        aug-cc-pVTZ
scf_type     df
}

energy("sapt2+")
--------------------------------------------------------------------------

  //              Dimer HF             //
    Molecular point group: c1
  Charge       = 1
  Multiplicity = 1
  Basis Set: AUG-CC-PVTZ
    Blend: AUG-CC-PVTZ
  Basis Set: (AUG-CC-PVTZ AUX)
    Blend: AUG-CC-PVTZ-JKFIT + DEF2-UNIVERSAL-JKFIT
  @DF-RHF Final Energy: -2896.09492731083128
    Total Energy =                      -2896.0949273108308262
 Dipole X            :        -95.4458532          104.5235828            9.0777296
 Dipole Y            :        -48.4936554           52.2617914            3.7681360
 Dipole Z            :         -0.0000000            0.0000000           -0.0000000
 Magnitude           :                                                    9.8287346
  //            Monomer A HF           //
    Molecular point group: c1
  Multiplicity = 1
  Basis Set: AUG-CC-PVTZ
    Blend: AUG-CC-PVTZ
  Basis Set: (AUG-CC-PVTZ AUX)
    Blend: AUG-CC-PVTZ-JKFIT + DEF2-UNIVERSAL-JKFIT
  @DF-RHF Final Energy: -2734.40587642708306
    Total Energy =                      -2734.4058764270830579
  //            Monomer B HF           //
    Molecular point group: c1

    Geometry (in Angstrom), charge = 1, multiplicity = 1:

       Center              X                  Y                   Z               Mass
    ------------   -----------------  -----------------  -----------------  -----------------
      Gh(BR)          0.000000000000     0.000000000000     0.000000000000    78.918337600000
      Gh(NA)          0.000000000000     2.514159000000     0.000000000000    22.989769282000
         NA           5.028318000000     0.000000000000     0.000000000000    22.989769282000

  Charge       = 1
  Multiplicity = 1
  Basis Set: AUG-CC-PVTZ
    Blend: AUG-CC-PVTZ
  Basis Set: (AUG-CC-PVTZ AUX)
    Blend: AUG-CC-PVTZ-JKFIT + DEF2-UNIVERSAL-JKFIT

    Orbital Energies [Eh]
    ---------------------

    Doubly Occupied:

       1A    -40.763644     2A     -3.075290     3A     -1.798472
       4A     -1.798433     5A     -1.798430

  @DF-RHF Final Energy:  -161.67602710727186

   => Energetics <=

    Nuclear Repulsion Energy =              0.0000000000000000
    One-Electron Energy =                -224.8835155175100624
    Two-Electron Energy =                  63.2074884102381844
    Total Energy =                       -161.6760271072718638
 Dipole X            :        -95.0216448          104.5235828            9.5019380
 Dipole Y            :          0.0000632            0.0000000            0.0000632
 Dipole Z            :         -0.0000000            0.0000000           -0.0000000
 Magnitude           :                                                    9.5019380

    SAPT Results
  --------------------------------------------------------------------------------------------------------
    Electrostatics                -10.37433263 [mEh]      -6.50999201 [kcal/mol]     -27.23780657 [kJ/mol]
      Elst10,r                    -10.46489546 [mEh]      -6.56682104 [kcal/mol]     -27.47557924 [kJ/mol]
      Elst12,r                      0.09056283 [mEh]       0.05682903 [kcal/mol]       0.23777267 [kJ/mol]

    Exchange                        0.02113183 [mEh]       0.01326042 [kcal/mol]       0.05548161 [kJ/mol]
      Exch10                        0.01817560 [mEh]       0.01140536 [kcal/mol]       0.04772002 [kJ/mol]
      Exch10(S^2)                   0.01817550 [mEh]       0.01140530 [kcal/mol]       0.04771976 [kJ/mol]
      Exch11(S^2)                  -0.00009898 [mEh]      -0.00006211 [kcal/mol]      -0.00025987 [kJ/mol]
      Exch12(S^2)                   0.00305521 [mEh]       0.00191718 [kcal/mol]       0.00802146 [kJ/mol]

    Induction                      -2.75336571 [mEh]      -1.72776306 [kcal/mol]      -7.22896066 [kJ/mol]
      Ind20,r                      -2.36982164 [mEh]      -1.48708553 [kcal/mol]      -6.22196586 [kJ/mol]
      Ind22                        -0.17969977 [mEh]      -0.11276331 [kcal/mol]      -0.47180167 [kJ/mol]
      Exch-Ind20,r                  0.04471510 [mEh]       0.02805915 [kcal/mol]       0.11739948 [kJ/mol]
      Exch-Ind22                    0.00339067 [mEh]       0.00212768 [kcal/mol]       0.00890221 [kJ/mol]
      delta HF,r (2)               -0.25195007 [mEh]      -0.15810106 [kcal/mol]      -0.66149482 [kJ/mol]

    Dispersion                     -0.01638145 [mEh]      -0.01027951 [kcal/mol]      -0.04300948 [kJ/mol]
      Disp20                       -0.01437390 [mEh]      -0.00901976 [kcal/mol]      -0.03773868 [kJ/mol]
      Disp21                       -0.00001274 [mEh]      -0.00000799 [kcal/mol]      -0.00003344 [kJ/mol]
      Disp22 (SDQ)                 -0.00075330 [mEh]      -0.00047270 [kcal/mol]      -0.00197779 [kJ/mol]
      Disp22 (T)                   -0.00131305 [mEh]      -0.00082395 [kcal/mol]      -0.00344742 [kJ/mol]
      Est. Disp22 (T)              -0.00144484 [mEh]      -0.00090665 [kcal/mol]      -0.00379342 [kJ/mol]
      Exch-Disp20                   0.00020333 [mEh]       0.00012759 [kcal/mol]       0.00053384 [kJ/mol]

  Total HF                        -13.02377648 [mEh]      -8.17254312 [kcal/mol]     -34.19392043 [kJ/mol]
  Total SAPT0                     -13.03794705 [mEh]      -8.18143529 [kcal/mol]     -34.23112526 [kJ/mol]
  Total SAPT2                     -13.12073708 [mEh]      -8.23338682 [kcal/mol]     -34.44849046 [kJ/mol]
  Total SAPT2+                    -13.12294795 [mEh]      -8.23477416 [kcal/mol]     -34.45429510 [kJ/mol]

  Special recipe for scaled SAPT0 (see Manual):
    Electrostatics sSAPT0         -10.46489546 [mEh]      -6.56682104 [kcal/mol]     -27.47557924 [kJ/mol]
    Exchange sSAPT0                 0.01817560 [mEh]       0.01140536 [kcal/mol]       0.04772002 [kJ/mol]
    Induction sSAPT0               -2.57705589 [mEh]      -1.61712698 [kcal/mol]      -6.76605930 [kJ/mol]
    Dispersion sSAPT0              -0.01417057 [mEh]      -0.00889217 [kcal/mol]      -0.03720483 [kJ/mol]
  Total sSAPT0                    -13.03794632 [mEh]      -8.18143484 [kcal/mol]     -34.23112335 [kJ/mol]
  --------------------------------------------------------------------------------------------------------

*** Psi4 exiting successfully. Buy a developer a beer!
