                               Psi4 1.9 release

  ==> Input File <==

--------------------------------------------------------------------------
MEMORY 60 GB

molecule dimer {
0 1
Br     0.000000     0.000000     0.000000
Na     0.000000     2.514159     0.000000
--
1 1
Na     3.771238     0.000000     0.000000

units ang
no_reorient
no_com
symmetry c1
}

set {
basis        aug-cc-pVTZ
scf_type     df
}

energy("sapt2+")
--------------------------------------------------------------------------

  //              Dimer HF             //
    Molecular point group: c1
  Charge       = 1
  Multiplicity = 1
  Basis Set: AUG-CC-PVTZ
    Blend: AUG-CC-PVTZ
  Basis Set: (AUG-CC-PVTZ AUX)
    Blend: AUG-CC-PVTZ-JKFIT + DEF2-UNIVERSAL-JKFIT
  @DF-RHF Final Energy: -2896.11132574561680
    Total Energy =                      -2896.1113257456163410
 Dipole X            :        -71.9983391           78.3926767            6.3943376
 Dipole Y            :        -48.4715994           52.2617914            3.7901920
 Dipole Z            :         -0.0000000            0.0000000           -0.0000000
 Magnitude           :                                                    7.4332435
  //            Monomer A HF           //
    Molecular point group: c1
  Multiplicity = 1
  Basis Set: AUG-CC-PVTZ
    Blend: AUG-CC-PVTZ
  Basis Set: (AUG-CC-PVTZ AUX)
    Blend: AUG-CC-PVTZ-JKFIT + DEF2-UNIVERSAL-JKFIT
  @DF-RHF Final Energy: -2734.40589491766650
    Total Energy =                      -2734.4058949176665010
  //            Monomer B HF           //
    Molecular point group: c1

    Geometry (in Angstrom), charge = 1, multiplicity = 1:

       Center              X                  Y                   Z               Mass
    ------------   -----------------  -----------------  -----------------  -----------------
      Gh(BR)          0.000000000000     0.000000000000     0.000000000000    78.918337600000
      Gh(NA)          0.000000000000     2.514159000000     0.000000000000    22.989769282000
         NA           3.771238000000     0.000000000000     0.000000000000    22.989769282000

  Charge       = 1
  Multiplicity = 1
  Basis Set: AUG-CC-PVTZ
    Blend: AUG-CC-PVTZ
  Basis Set: (AUG-CC-PVTZ AUX)
    Blend: AUG-CC-PVTZ-JKFIT + DEF2-UNIVERSAL-JKFIT

    Orbital Energies [Eh]
    ---------------------

    Doubly Occupied:

       1A    -40.763333     2A     -3.075155     3A     -1.798386
       4A     -1.798303     5A     -1.798287

  @DF-RHF Final Energy:  -161.67603163104721

   => Energetics <=

    Nuclear Repulsion Energy =              0.0000000000000000
    One-Electron Energy =                -224.8851369209671134
    Two-Electron Energy =                  63.2091052899198971
    Total Energy =                       -161.6760316310472092
 Dipole X            :        -71.2664596           78.3926767            7.1262171
 Dipole Y            :          0.0000784            0.0000000            0.0000784
 Dipole Z            :          0.0000000            0.0000000            0.0000000
 Magnitude           :                                                    7.1262171

    SAPT Results
  --------------------------------------------------------------------------------------------------------
    Electrostatics                -21.99720716 [mEh]     -13.80345589 [kcal/mol]     -57.75365945 [kJ/mol]
      Elst10,r                    -22.16907325 [mEh]     -13.91130349 [kcal/mol]     -58.20489380 [kJ/mol]
      Elst12,r                      0.17186609 [mEh]       0.10784760 [kcal/mol]       0.45123435 [kJ/mol]

    Exchange                        0.85515298 [mEh]       0.53661659 [kcal/mol]       2.24520383 [kJ/mol]
      Exch10                        0.78005912 [mEh]       0.48949449 [kcal/mol]       2.04804494 [kJ/mol]
      Exch10(S^2)                   0.77988459 [mEh]       0.48938497 [kcal/mol]       2.04758670 [kJ/mol]
      Exch11(S^2)                  -0.00584474 [mEh]      -0.00366763 [kcal/mol]      -0.01534538 [kJ/mol]
      Exch12(S^2)                   0.08093860 [mEh]       0.05078974 [kcal/mol]       0.21250426 [kJ/mol]

    Induction                      -8.59976170 [mEh]      -5.39643194 [kcal/mol]     -22.57867124 [kJ/mol]
      Ind20,r                      -9.12584606 [mEh]      -5.72655486 [kcal/mol]     -23.95990554 [kJ/mol]
      Ind22                        -0.72178410 [mEh]      -0.45292636 [kcal/mol]      -1.89504390 [kJ/mol]
      Exch-Ind20,r                  1.67153041 [mEh]       1.04890117 [kcal/mol]       4.38860248 [kJ/mol]
      Exch-Ind22                    0.13220517 [mEh]       0.08296000 [kcal/mol]       0.34710464 [kJ/mol]
      delta HF,r (2)               -0.55586712 [mEh]      -0.34881188 [kcal/mol]      -1.45942892 [kJ/mol]

    Dispersion                     -0.11603088 [mEh]      -0.07281048 [kcal/mol]      -0.30463903 [kJ/mol]
      Disp20                       -0.10648503 [mEh]      -0.06682036 [kcal/mol]      -0.27957641 [kJ/mol]
      Disp21                       -0.00326146 [mEh]      -0.00204659 [kcal/mol]      -0.00856295 [kJ/mol]
      Disp22 (SDQ)                 -0.00527915 [mEh]      -0.00331272 [kcal/mol]      -0.01386041 [kJ/mol]
      Disp22 (T)                   -0.00895682 [mEh]      -0.00562049 [kcal/mol]      -0.02351613 [kJ/mol]
      Est. Disp22 (T)              -0.01014822 [mEh]      -0.00636810 [kcal/mol]      -0.02664415 [kJ/mol]
      Exch-Disp20                   0.00914298 [mEh]       0.00573731 [kcal/mol]       0.02400489 [kJ/mol]

  Total HF                        -29.39919690 [mEh]     -18.44827458 [kcal/mol]     -77.18758083 [kJ/mol]
  Total SAPT0                     -29.49653895 [mEh]     -18.50935764 [kcal/mol]     -77.44315235 [kJ/mol]
  Total SAPT2                     -29.83915794 [mEh]     -18.72435430 [kcal/mol]     -78.34269838 [kJ/mol]
  Total SAPT2+                    -29.85784677 [mEh]     -18.73608171 [kcal/mol]     -78.39176589 [kJ/mol]

  Special recipe for scaled SAPT0 (see Manual):
    Electrostatics sSAPT0         -22.16907325 [mEh]     -13.91130349 [kcal/mol]     -58.20489380 [kJ/mol]
    Exchange sSAPT0                 0.78005912 [mEh]       0.48949449 [kcal/mol]       2.04804494 [kJ/mol]
    Induction sSAPT0               -8.00906027 [mEh]      -5.02576120 [kcal/mol]     -21.02778485 [kJ/mol]
    Dispersion sSAPT0              -0.09733591 [mEh]      -0.06107921 [kcal/mol]      -0.25555540 [kJ/mol]
  Total sSAPT0                    -29.49541031 [mEh]     -18.50864940 [kcal/mol]     -77.44018910 [kJ/mol]
  --------------------------------------------------------------------------------------------------------

*** Psi4 exiting successfully. Buy a developer a beer!
