                               Psi4 1.9 release

  ==> Input File <==

--------------------------------------------------------------------------
MEMORY 60 GB

molecule dimer {
0 1
Br     0.000000     0.000000     0.000000
Na     0.000000     2.514159     0.000000
--
1 1
Na     3.268407     0.000000     0.000000

units ang
no_reorient
no_com
symmetry c1
}

set {
basis        aug-cc-pVTZ
scf_type     df
}

energy("sapt2+")
--------------------------------------------------------------------------

  //              Dimer HF             //
    Molecular point group: c1
  Charge       = 1
  Multiplicity = 1
  Basis Set: AUG-CC-PVTZ
    Blend: AUG-CC-PVTZ
  Basis Set: (AUG-CC-PVTZ AUX)
    Blend: AUG-CC-PVTZ-JKFIT + DEF2-UNIVERSAL-JKFIT
  @DF-RHF Final Energy: -2896.12239016432159
    Total Energy =                      -2896.1223901643211320
 Dipole X            :        -62.6212149           67.9403351            5.3191202
 Dipole Y            :        -48.4546623           52.2617914            3.8071292
 Dipole Z            :         -0.0000000            0.0000000           -0.0000000
 Magnitude           :                                                    6.5411980
  //            Monomer A HF           //
    Molecular point group: c1
  Multiplicity = 1
  Basis Set: AUG-CC-PVTZ
    Blend: AUG-CC-PVTZ
  Basis Set: (AUG-CC-PVTZ AUX)
    Blend: AUG-CC-PVTZ-JKFIT + DEF2-UNIVERSAL-JKFIT
  @DF-RHF Final Energy: -2734.40590622174659
    Total Energy =                      -2734.4059062217465907
  //            Monomer B HF           //
    Molecular point group: c1

    Geometry (in Angstrom), charge = 1, multiplicity = 1:

       Center              X                  Y                   Z               Mass
    ------------   -----------------  -----------------  -----------------  -----------------
      Gh(BR)          0.000000000000     0.000000000000     0.000000000000    78.918337600000
      Gh(NA)          0.000000000000     2.514159000000     0.000000000000    22.989769282000
         NA           3.268407000000     0.000000000000     0.000000000000    22.989769282000

  Charge       = 1
  Multiplicity = 1
  Basis Set: AUG-CC-PVTZ
    Blend: AUG-CC-PVTZ
  Basis Set: (AUG-CC-PVTZ AUX)
    Blend: AUG-CC-PVTZ-JKFIT + DEF2-UNIVERSAL-JKFIT

    Orbital Energies [Eh]
    ---------------------

    Doubly Occupied:

       1A    -40.763038     2A     -3.075017     3A     -1.798286
       4A     -1.798177     5A     -1.798148

  @DF-RHF Final Energy:  -161.67603502184801

   => Energetics <=

    Nuclear Repulsion Energy =              0.0000000000000000
    One-Electron Energy =                -224.8867393600420712
    Two-Electron Energy =                  63.2107043381940628
    Total Energy =                       -161.6760350218480085
 Dipole X            :        -61.7645618           67.9403351            6.1757732
 Dipole Y            :          0.0000877            0.0000000            0.0000877
 Dipole Z            :         -0.0000000            0.0000000           -0.0000000
 Magnitude           :                                                    6.1757732

    SAPT Results
  --------------------------------------------------------------------------------------------------------
    Electrostatics                -31.64539336 [mEh]     -19.85778413 [kcal/mol]     -83.08496881 [kJ/mol]
      Elst10,r                    -31.86000583 [mEh]     -19.99245549 [kcal/mol]     -83.64843377 [kJ/mol]
      Elst12,r                      0.21461247 [mEh]       0.13467136 [kcal/mol]       0.56346496 [kJ/mol]

    Exchange                        3.83536075 [mEh]       2.40672521 [kcal/mol]      10.06973826 [kJ/mol]
      Exch10                        3.58680193 [mEh]       2.25075219 [kcal/mol]       9.41714717 [kJ/mol]
      Exch10(S^2)                   3.58321876 [mEh]       2.24850372 [kcal/mol]       9.40773957 [kJ/mol]
      Exch11(S^2)                  -0.03404924 [mEh]      -0.02136622 [kcal/mol]      -0.08939626 [kJ/mol]
      Exch12(S^2)                   0.28260806 [mEh]       0.17733923 [kcal/mol]       0.74198735 [kJ/mol]

    Induction                     -13.14099326 [mEh]      -8.24609777 [kcal/mol]     -34.50167306 [kJ/mol]
      Ind20,r                     -19.48149352 [mEh]     -12.22482175 [kcal/mol]     -51.14865419 [kJ/mol]
      Ind22                        -1.51470439 [mEh]      -0.95049136 [kcal/mol]      -3.97685584 [kJ/mol]
      Exch-Ind20,r                  7.06651233 [mEh]       4.43430343 [kcal/mol]      18.55312557 [kJ/mol]
      Exch-Ind22                    0.54942796 [mEh]       0.34477125 [kcal/mol]       1.44252292 [kJ/mol]
      delta HF,r (2)                0.23926436 [mEh]       0.15014065 [kcal/mol]       0.62818849 [kJ/mol]

    Dispersion                     -0.28500225 [mEh]      -0.17884161 [kcal/mol]      -0.74827329 [kJ/mol]
      Disp20                       -0.27822870 [mEh]      -0.17459114 [kcal/mol]      -0.73048934 [kJ/mol]
      Disp21                       -0.00914930 [mEh]      -0.00574127 [kcal/mol]      -0.02402149 [kJ/mol]
      Disp22 (SDQ)                 -0.01221985 [mEh]      -0.00766807 [kcal/mol]      -0.03208321 [kJ/mol]
      Disp22 (T)                   -0.02155028 [mEh]      -0.01352301 [kcal/mol]      -0.05658026 [kJ/mol]
      Est. Disp22 (T)              -0.02523573 [mEh]      -0.01583566 [kcal/mol]      -0.06625640 [kJ/mol]
      Exch-Disp20                   0.03983133 [mEh]       0.02499454 [kcal/mol]       0.10457715 [kJ/mol]

  Total HF                        -40.44892073 [mEh]     -25.38208096 [kcal/mol]    -106.19862674 [kJ/mol]
  Total SAPT0                     -40.68731809 [mEh]     -25.53167756 [kcal/mol]    -106.82453893 [kJ/mol]
  Total SAPT2                     -41.18942323 [mEh]     -25.84675330 [kcal/mol]    -108.14281580 [kJ/mol]
  Total SAPT2+                    -41.23602812 [mEh]     -25.87599830 [kcal/mol]    -108.26517690 [kJ/mol]

  Special recipe for scaled SAPT0 (see Manual):
    Electrostatics sSAPT0         -31.86000583 [mEh]     -19.99245549 [kcal/mol]     -83.64843377 [kJ/mol]
    Exchange sSAPT0                 3.58680193 [mEh]       2.25075219 [kcal/mol]       9.41714717 [kJ/mol]
    Induction sSAPT0              -12.15449641 [mEh]      -7.62706164 [kcal/mol]     -31.91162592 [kJ/mol]
    Dispersion sSAPT0              -0.23827775 [mEh]      -0.14952155 [kcal/mol]      -0.62559815 [kJ/mol]
  Total sSAPT0                    -40.66597805 [mEh]     -25.51828649 [kcal/mol]    -106.76851067 [kJ/mol]
  --------------------------------------------------------------------------------------------------------

*** Psi4 exiting successfully. Buy a developer a beer!
