                               Psi4 1.9 release

  ==> Input File <==

--------------------------------------------------------------------------
MEMORY 60 GB

molecule dimer {
0 1
Br     0.000000     0.000000     0.000000
Na     0.000000     2.514159     0.000000
--
1 1
Na     3.519823     0.000000     0.000000

units ang
no_reorient
no_com
symmetry c1
}

set {
basis        aug-cc-pVTZ
scf_type     df
}

energy("sapt2+")
--------------------------------------------------------------------------

  //              Dimer HF             //
    Molecular point group: c1
  Charge       = 1
  Multiplicity = 1
  Basis Set: AUG-CC-PVTZ
    Blend: AUG-CC-PVTZ
  Basis Set: (AUG-CC-PVTZ AUX)
    Blend: AUG-CC-PVTZ-JKFIT + DEF2-UNIVERSAL-JKFIT
  @DF-RHF Final Energy: -2896.11662145131140
    Total Energy =                      -2896.1166214513114028
 Dipole X            :        -67.3139638           73.1665163            5.8525525
 Dipole Y            :        -48.4638881           52.2617914            3.7979033
 Dipole Z            :         -0.0000000            0.0000000           -0.0000000
 Magnitude           :                                                    6.9768503
  //            Monomer A HF           //
    Molecular point group: c1
  Multiplicity = 1
  Basis Set: AUG-CC-PVTZ
    Blend: AUG-CC-PVTZ
  Basis Set: (AUG-CC-PVTZ AUX)
    Blend: AUG-CC-PVTZ-JKFIT + DEF2-UNIVERSAL-JKFIT
  @DF-RHF Final Energy: -2734.40590021787420
    Total Energy =                      -2734.4059002178742048
  //            Monomer B HF           //
    Molecular point group: c1

    Geometry (in Angstrom), charge = 1, multiplicity = 1:

       Center              X                  Y                   Z               Mass
    ------------   -----------------  -----------------  -----------------  -----------------
      Gh(BR)          0.000000000000     0.000000000000     0.000000000000    78.918337600000
      Gh(NA)          0.000000000000     2.514159000000     0.000000000000    22.989769282000
         NA           3.519823000000     0.000000000000     0.000000000000    22.989769282000

  Charge       = 1
  Multiplicity = 1
  Basis Set: AUG-CC-PVTZ
    Blend: AUG-CC-PVTZ
  Basis Set: (AUG-CC-PVTZ AUX)
    Blend: AUG-CC-PVTZ-JKFIT + DEF2-UNIVERSAL-JKFIT

    Orbital Energies [Eh]
    ---------------------

    Doubly Occupied:

       1A    -40.763168     2A     -3.075079     3A     -1.798336
       4A     -1.798230     5A     -1.798209

  @DF-RHF Final Energy:  -161.67603353024538

   => Energetics <=

    Nuclear Repulsion Energy =              0.0000000000000000
    One-Electron Energy =                -224.8860231404772492
    Two-Electron Energy =                  63.2099896102318866
    Total Energy =                       -161.6760335302453768
 Dipole X            :        -66.5155342           73.1665163            6.6509821
 Dipole Y            :          0.0000832            0.0000000            0.0000832
 Dipole Z            :         -0.0000000            0.0000000           -0.0000000
 Magnitude           :                                                    6.6509821

    SAPT Results
  --------------------------------------------------------------------------------------------------------
    Electrostatics                -26.22150055 [mEh]     -16.45424001 [kcal/mol]     -68.84454021 [kJ/mol]
      Elst10,r                    -26.41392646 [mEh]     -16.57498909 [kcal/mol]     -69.34975437 [kJ/mol]
      Elst12,r                      0.19242591 [mEh]       0.12074908 [kcal/mol]       0.50521416 [kJ/mol]

    Exchange                        1.80967500 [mEh]       1.13558820 [kcal/mol]       4.75130105 [kJ/mol]
      Exch10                        1.67091325 [mEh]       1.04851390 [kcal/mol]       4.38698214 [kJ/mol]
      Exch10(S^2)                   1.67012173 [mEh]       1.04801721 [kcal/mol]       4.38490401 [kJ/mol]
      Exch11(S^2)                  -0.01394892 [mEh]      -0.00875308 [kcal/mol]      -0.03662289 [kJ/mol]
      Exch12(S^2)                   0.15271067 [mEh]       0.09582739 [kcal/mol]       0.40094180 [kJ/mol]

    Induction                     -10.70478648 [mEh]      -6.71735493 [kcal/mol]     -28.10541303 [kJ/mol]
      Ind20,r                     -13.06263978 [mEh]      -8.19693022 [kcal/mol]     -34.29595603 [kJ/mol]
      Ind22                        -1.03185641 [mEh]      -0.64749968 [kcal/mol]      -2.70913864 [kJ/mol]
      Exch-Ind20,r                  3.44030610 [mEh]       2.15882467 [kcal/mol]       9.03252241 [kJ/mol]
      Exch-Ind22                    0.27175992 [mEh]       0.17053192 [kcal/mol]       0.71350557 [kJ/mol]
      delta HF,r (2)               -0.32235629 [mEh]      -0.20228163 [kcal/mol]      -0.84634633 [kJ/mol]

    Dispersion                     -0.18110069 [mEh]      -0.11364240 [kcal/mol]      -0.47547979 [kJ/mol]
      Disp20                       -0.17065042 [mEh]      -0.10708475 [kcal/mol]      -0.44804260 [kJ/mol]
      Disp21                       -0.00566179 [mEh]      -0.00355283 [kcal/mol]      -0.01486502 [kJ/mol]
      Disp22 (SDQ)                 -0.00803879 [mEh]      -0.00504442 [kcal/mol]      -0.02110584 [kJ/mol]
      Disp22 (T)                   -0.01380356 [mEh]      -0.00866186 [kcal/mol]      -0.03624123 [kJ/mol]
      Est. Disp22 (T)              -0.01589376 [mEh]      -0.00997349 [kcal/mol]      -0.04172906 [kJ/mol]
      Exch-Disp20                   0.01914407 [mEh]       0.01201308 [kcal/mol]       0.05026275 [kJ/mol]

  Total HF                        -34.68770319 [mEh]     -21.76686238 [kcal/mol]     -91.07255218 [kJ/mol]
  Total SAPT0                     -34.83920954 [mEh]     -21.86193404 [kcal/mol]     -91.47033204 [kJ/mol]
  Total SAPT2                     -35.26811838 [mEh]     -22.13107841 [kcal/mol]     -92.59643205 [kJ/mol]
  Total SAPT2+                    -35.29771272 [mEh]     -22.14964914 [kcal/mol]     -92.67413198 [kJ/mol]

  Special recipe for scaled SAPT0 (see Manual):
    Electrostatics sSAPT0         -26.41392646 [mEh]     -16.57498909 [kcal/mol]     -69.34975437 [kJ/mol]
    Exchange sSAPT0                 1.67091325 [mEh]       1.04851390 [kcal/mol]       4.38698214 [kJ/mol]
    Induction sSAPT0               -9.93979628 [mEh]      -6.23731633 [kcal/mol]     -26.09693153 [kJ/mol]
    Dispersion sSAPT0              -0.15147911 [mEh]      -0.09505458 [kcal/mol]      -0.39770836 [kJ/mol]
  Total sSAPT0                    -34.83428860 [mEh]     -21.85884611 [kcal/mol]     -91.45741212 [kJ/mol]
  --------------------------------------------------------------------------------------------------------

*** Psi4 exiting successfully. Buy a developer a beer!
