                               Psi4 1.9 release

  ==> Input File <==

--------------------------------------------------------------------------
MEMORY 60 GB

molecule dimer {
0 1
Na     0.000000     0.000000     0.000000
Br     0.000000     2.514159     0.000000
--
-1 1
Br     3.519823     0.000000     0.000000

units ang
no_reorient
no_com
symmetry c1
}

set {
basis        aug-cc-pVTZ
scf_type     df
}

energy("sapt2+")
--------------------------------------------------------------------------

  //              Dimer HF             //
    Molecular point group: c1
  Charge       = -1
  Multiplicity = 1
  Basis Set: AUG-CC-PVTZ
    Blend: AUG-CC-PVTZ
  Basis Set: (AUG-CC-PVTZ AUX)
    Blend: AUG-CC-PVTZ-JKFIT + DEF2-UNIVERSAL-JKFIT
  @DF-RHF Final Energy: -5306.96456715893873
    Total Energy =                      -5306.9645671589387348
 Dipole X            :       -238.6867428          232.8025518           -5.8841910
 Dipole Y            :       -170.0641370          166.2875181           -3.7766189
 Dipole Z            :         -0.0000000            0.0000000           -0.0000000
 Magnitude           :                                                    6.9918920
  //            Monomer A HF           //
    Molecular point group: c1
  Multiplicity = 1
  Basis Set: AUG-CC-PVTZ
    Blend: AUG-CC-PVTZ
  Basis Set: (AUG-CC-PVTZ AUX)
    Blend: AUG-CC-PVTZ-JKFIT + DEF2-UNIVERSAL-JKFIT
  @DF-RHF Final Energy: -2734.40587659993298
    Total Energy =                      -2734.4058765999329808
  //            Monomer B HF           //
    Molecular point group: c1

    Geometry (in Angstrom), charge = -1, multiplicity = 1:

       Center              X                  Y                   Z               Mass
    ------------   -----------------  -----------------  -----------------  -----------------
      Gh(NA)          0.000000000000     0.000000000000     0.000000000000    22.989769282000
      Gh(BR)          0.000000000000     2.514159000000     0.000000000000    78.918337600000
         BR           3.519823000000     0.000000000000     0.000000000000    78.918337600000

  Charge       = -1
  Multiplicity = 1
  Basis Set: AUG-CC-PVTZ
    Blend: AUG-CC-PVTZ
  Basis Set: (AUG-CC-PVTZ AUX)
    Blend: AUG-CC-PVTZ-JKFIT + DEF2-UNIVERSAL-JKFIT

    Orbital Energies [Eh]
    ---------------------

    Doubly Occupied:

       1A   -489.720671     2A    -64.860666     3A    -58.215149
       4A    -58.215149     5A    -58.215148     6A     -9.532916
       7A     -7.140262     8A     -7.140260     9A     -7.140254
      10A     -2.881934    11A     -2.881933    12A     -2.881933
      13A     -2.881931    14A     -2.881930    15A     -0.685999
      16A     -0.139342    17A     -0.139337    18A     -0.139337

  @DF-RHF Final Energy: -2572.53367800575143

   => Energetics <=

    Nuclear Repulsion Energy =              0.0000000000000000
    One-Electron Energy =               -3593.6790519405449231
    Two-Electron Energy =                1021.1453739347932697
    Total Energy =                      -2572.5336780057514261
 Dipole X            :       -239.4543129          232.8025518           -6.6517611
 Dipole Y            :         -0.0000154            0.0000000           -0.0000154
 Dipole Z            :          0.0000000            0.0000000            0.0000000
 Magnitude           :                                                    6.6517611

    SAPT Results
  --------------------------------------------------------------------------------------------------------
    Electrostatics                -24.26206810 [mEh]     -15.22467759 [kcal/mol]     -63.70005102 [kJ/mol]
      Elst10,r                    -24.21404660 [mEh]     -15.19454364 [kcal/mol]     -63.57397059 [kJ/mol]
      Elst12,r                     -0.04802150 [mEh]      -0.03013394 [kcal/mol]      -0.12608043 [kJ/mol]

    Exchange                        6.16485852 [mEh]       3.86850713 [kcal/mol]      16.18583382 [kJ/mol]
      Exch10                        5.31503423 [mEh]       3.33523433 [kcal/mol]      13.95462044 [kJ/mol]
      Exch10(S^2)                   5.29331416 [mEh]       3.32160478 [kcal/mol]      13.89759442 [kJ/mol]
      Exch11(S^2)                   0.31226506 [mEh]       0.19594929 [kcal/mol]       0.81985181 [kJ/mol]
      Exch12(S^2)                   0.53755923 [mEh]       0.33732351 [kcal/mol]       1.41136156 [kJ/mol]

    Induction                      -7.08386822 [mEh]      -4.44519442 [kcal/mol]     -18.59869345 [kJ/mol]
      Ind20,r                     -18.46819675 [mEh]     -11.58896842 [kcal/mol]     -48.48824388 [kJ/mol]
      Ind22                        -2.27434695 [mEh]      -1.42717426 [kcal/mol]      -5.97129709 [kJ/mol]
      Exch-Ind20,r                 10.58892563 [mEh]       6.64465115 [kcal/mol]      27.80122042 [kJ/mol]
      Exch-Ind22                    1.30401961 [mEh]       0.81828466 [kcal/mol]       3.42370301 [kJ/mol]
      delta HF,r (2)                1.76573023 [mEh]       1.10801245 [kcal/mol]       4.63592408 [kJ/mol]

    Dispersion                     -3.13413863 [mEh]      -1.96670168 [kcal/mol]      -8.22867985 [kJ/mol]
      Disp20                       -3.62620104 [mEh]      -2.27547551 [kcal/mol]      -9.52058952 [kJ/mol]
      Disp21                        0.43378926 [mEh]       0.27220687 [kcal/mol]       1.13891354 [kJ/mol]
      Disp22 (SDQ)                 -0.03149758 [mEh]      -0.01976503 [kcal/mol]      -0.08269688 [kJ/mol]
      Disp22 (T)                   -0.61903434 [mEh]      -0.38844991 [kcal/mol]      -1.62527443 [kJ/mol]
      Est. Disp22 (T)              -0.70600971 [mEh]      -0.44302778 [kcal/mol]      -1.85362823 [kJ/mol]
      Exch-Disp20                   0.79578043 [mEh]       0.49935976 [kcal/mol]       2.08932124 [kJ/mol]

  Total HF                        -25.01255325 [mEh]     -15.69561413 [kcal/mol]     -65.67044952 [kJ/mol]
  Total SAPT0                     -27.84297386 [mEh]     -17.47172988 [kcal/mol]     -73.10171781 [kJ/mol]
  Total SAPT2                     -28.01149841 [mEh]     -17.57748063 [kcal/mol]     -73.54417894 [kJ/mol]
  Total SAPT2+                    -28.31521643 [mEh]     -17.76806656 [kcal/mol]     -74.34159050 [kJ/mol]

  Special recipe for scaled SAPT0 (see Manual):
    Electrostatics sSAPT0         -24.21404660 [mEh]     -15.19454364 [kcal/mol]     -63.57397059 [kJ/mol]
    Exchange sSAPT0                 5.31503423 [mEh]       3.33523433 [kcal/mol]      13.95462044 [kJ/mol]
    Induction sSAPT0               -5.98265662 [mEh]      -3.75417371 [kcal/mol]     -15.70746279 [kJ/mol]
    Dispersion sSAPT0              -2.82058438 [mEh]      -1.76994342 [kcal/mol]      -7.40544326 [kJ/mol]
  Total sSAPT0                    -27.70225337 [mEh]     -17.38342644 [kcal/mol]     -72.73225621 [kJ/mol]
  --------------------------------------------------------------------------------------------------------

*** Psi4 exiting successfully. Buy a developer a beer!
