                               Psi4 1.9 release

  ==> Input File <==

--------------------------------------------------------------------------
MEMORY 60 GB

molecule dimer {
0 1
Na     0.000000     0.000000     0.000000
Br     0.000000     2.514159     0.000000
--
-1 1
Br     3.771238     0.000000     0.000000

units ang
no_reorient
no_com
symmetry c1
}

set {
basis        aug-cc-pVTZ
scf_type     df
}

energy("sapt2+")
--------------------------------------------------------------------------

  //              Dimer HF             //
    Molecular point group: c1
  Charge       = -1
  Multiplicity = 1
  Basis Set: AUG-CC-PVTZ
    Blend: AUG-CC-PVTZ
  Basis Set: (AUG-CC-PVTZ AUX)
    Blend: AUG-CC-PVTZ-JKFIT + DEF2-UNIVERSAL-JKFIT
  @DF-RHF Final Energy: -5306.96082657461830
    Total Energy =                      -5306.9608265746192046
 Dipole X            :       -255.8596142          249.4312441           -6.4283701
 Dipole Y            :       -170.0556019          166.2875181           -3.7680838
 Dipole Z            :         -0.0000000            0.0000000           -0.0000000
 Magnitude           :                                                    7.4513353
  //            Monomer A HF           //
    Molecular point group: c1
  Multiplicity = 1
  Basis Set: AUG-CC-PVTZ
    Blend: AUG-CC-PVTZ
  Basis Set: (AUG-CC-PVTZ AUX)
    Blend: AUG-CC-PVTZ-JKFIT + DEF2-UNIVERSAL-JKFIT
  @DF-RHF Final Energy: -2734.40587209930891
    Total Energy =                      -2734.4058720993089082
  //            Monomer B HF           //
    Molecular point group: c1

    Geometry (in Angstrom), charge = -1, multiplicity = 1:

       Center              X                  Y                   Z               Mass
    ------------   -----------------  -----------------  -----------------  -----------------
      Gh(NA)          0.000000000000     0.000000000000     0.000000000000    22.989769282000
      Gh(BR)          0.000000000000     2.514159000000     0.000000000000    78.918337600000
         BR           3.771238000000     0.000000000000     0.000000000000    78.918337600000

  Charge       = -1
  Multiplicity = 1
  Basis Set: AUG-CC-PVTZ
    Blend: AUG-CC-PVTZ
  Basis Set: (AUG-CC-PVTZ AUX)
    Blend: AUG-CC-PVTZ-JKFIT + DEF2-UNIVERSAL-JKFIT

    Orbital Energies [Eh]
    ---------------------

    Doubly Occupied:

       1A   -489.720624     2A    -64.860634     3A    -58.215115
       4A    -58.215114     5A    -58.215113     6A     -9.532907
       7A     -7.140252     8A     -7.140251     9A     -7.140245
      10A     -2.881924    11A     -2.881923    12A     -2.881922
      13A     -2.881921    14A     -2.881919    15A     -0.686000
      16A     -0.139342    17A     -0.139338    18A     -0.139337

  @DF-RHF Final Energy: -2572.53367644134778

   => Energetics <=

    Nuclear Repulsion Energy =              0.0000000000000000
    One-Electron Energy =               -3593.6795888016649769
    Two-Electron Energy =                1021.1459123603171975
    Total Energy =                      -2572.5336764413477795
 Dipole X            :       -256.5580710          249.4312441           -7.1268269
 Dipole Y            :          0.0000009            0.0000000            0.0000009
 Dipole Z            :         -0.0000000            0.0000000           -0.0000000
 Magnitude           :                                                    7.1268269

    SAPT Results
  --------------------------------------------------------------------------------------------------------
    Electrostatics                -19.47598535 [mEh]     -12.22136532 [kcal/mol]     -51.13419249 [kJ/mol]
      Elst10,r                    -19.57171976 [mEh]     -12.28143957 [kcal/mol]     -51.38554316 [kJ/mol]
      Elst12,r                      0.09573442 [mEh]       0.06007425 [kcal/mol]       0.25135067 [kJ/mol]

    Exchange                        3.43473206 [mEh]       2.15532691 [kcal/mol]       9.01788778 [kJ/mol]
      Exch10                        2.91200003 [mEh]       1.82730761 [kcal/mol]       7.64545504 [kJ/mol]
      Exch10(S^2)                   2.90492205 [mEh]       1.82286610 [kcal/mol]       7.62687178 [kJ/mol]
      Exch11(S^2)                   0.19897985 [mEh]       0.12486174 [kcal/mol]       0.52242153 [kJ/mol]
      Exch12(S^2)                   0.32375217 [mEh]       0.20315756 [kcal/mol]       0.85001121 [kJ/mol]

    Induction                      -5.38278748 [mEh]      -3.37775014 [kcal/mol]     -14.13250659 [kJ/mol]
      Ind20,r                     -12.04505399 [mEh]      -7.55838549 [kcal/mol]     -31.62428489 [kJ/mol]
      Ind22                        -1.47944311 [mEh]      -0.92836457 [kcal/mol]      -3.88427734 [kJ/mol]
      Exch-Ind20,r                  5.82100826 [mEh]       3.65273783 [kcal/mol]      15.28305508 [kJ/mol]
      Exch-Ind22                    0.71496986 [mEh]       0.44865036 [kcal/mol]       1.87715310 [kJ/mol]
      delta HF,r (2)                1.60573149 [mEh]       1.00761173 [kcal/mol]       4.21584746 [kJ/mol]

    Dispersion                     -2.35053643 [mEh]      -1.47498388 [kcal/mol]      -6.17133256 [kJ/mol]
      Disp20                       -2.61967179 [mEh]      -1.64386887 [kcal/mol]      -6.87794734 [kJ/mol]
      Disp21                        0.31628965 [mEh]       0.19847475 [kcal/mol]       0.83041837 [kJ/mol]
      Disp22 (SDQ)                 -0.02696450 [mEh]      -0.01692048 [kcal/mol]      -0.07079529 [kJ/mol]
      Disp22 (T)                   -0.45902050 [mEh]      -0.28803971 [kcal/mol]      -1.20515816 [kJ/mol]
      Est. Disp22 (T)              -0.52135882 [mEh]      -0.32715760 [kcal/mol]      -1.36882739 [kJ/mol]
      Exch-Disp20                   0.50116902 [mEh]       0.31448831 [kcal/mol]       1.31581909 [kJ/mol]

  Total HF                        -21.27803396 [mEh]     -13.35216789 [kcal/mol]     -55.86547047 [kJ/mol]
  Total SAPT0                     -23.39653673 [mEh]     -14.68154845 [kcal/mol]     -61.42759872 [kJ/mol]
  Total SAPT2                     -23.54254354 [mEh]     -14.77316911 [kcal/mol]     -61.81093955 [kJ/mol]
  Total SAPT2+                    -23.77457720 [mEh]     -14.91877243 [kcal/mol]     -62.42014385 [kJ/mol]

  Special recipe for scaled SAPT0 (see Manual):
    Electrostatics sSAPT0         -19.57171976 [mEh]     -12.28143957 [kcal/mol]     -51.38554316 [kJ/mol]
    Exchange sSAPT0                 2.91200003 [mEh]       1.82730761 [kcal/mol]       7.64545504 [kJ/mol]
    Induction sSAPT0               -4.57566093 [mEh]      -2.87127058 [kcal/mol]     -12.01339612 [kJ/mol]
    Dispersion sSAPT0              -2.11483046 [mEh]      -1.32707615 [kcal/mol]      -5.55248662 [kJ/mol]
  Total sSAPT0                    -23.35021113 [mEh]     -14.65247870 [kcal/mol]     -61.30597086 [kJ/mol]
  --------------------------------------------------------------------------------------------------------

*** Psi4 exiting successfully. Buy a developer a beer!
