                               Psi4 1.9 release

  ==> Input File <==

--------------------------------------------------------------------------
MEMORY 60 GB

molecule dimer {
0 1
Na     0.000000     0.000000     0.000000
Br     0.000000     2.514159     0.000000
--
-1 1
Br     3.016991     0.000000     0.000000

units ang
no_reorient
no_com
symmetry c1
}

set {
basis        aug-cc-pVTZ
scf_type     df
}

energy("sapt2+")
--------------------------------------------------------------------------

  //              Dimer HF             //
    Molecular point group: c1
  Charge       = -1
  Multiplicity = 1
  Basis Set: AUG-CC-PVTZ
    Blend: AUG-CC-PVTZ
  Basis Set: (AUG-CC-PVTZ AUX)
    Blend: AUG-CC-PVTZ-JKFIT + DEF2-UNIVERSAL-JKFIT
  @DF-RHF Final Energy: -5306.97184653547993
    Total Energy =                      -5306.9718465354799264
 Dipole X            :       -204.3611326          199.5450350           -4.8160977
 Dipole Y            :       -170.0898790          166.2875181           -3.8023609
 Dipole Z            :         -0.0000000            0.0000000           -0.0000000
 Magnitude           :                                                    6.1361833
  //            Monomer A HF           //
    Molecular point group: c1
  Multiplicity = 1
  Basis Set: AUG-CC-PVTZ
    Blend: AUG-CC-PVTZ
  Basis Set: (AUG-CC-PVTZ AUX)
    Blend: AUG-CC-PVTZ-JKFIT + DEF2-UNIVERSAL-JKFIT
  @DF-RHF Final Energy: -2734.40589788040461
    Total Energy =                      -2734.4058978804046092
  //            Monomer B HF           //
    Molecular point group: c1

    Geometry (in Angstrom), charge = -1, multiplicity = 1:

       Center              X                  Y                   Z               Mass
    ------------   -----------------  -----------------  -----------------  -----------------
      Gh(NA)          0.000000000000     0.000000000000     0.000000000000    22.989769282000
      Gh(BR)          0.000000000000     2.514159000000     0.000000000000    78.918337600000
         BR           3.016991000000     0.000000000000     0.000000000000    78.918337600000

  Charge       = -1
  Multiplicity = 1
  Basis Set: AUG-CC-PVTZ
    Blend: AUG-CC-PVTZ
  Basis Set: (AUG-CC-PVTZ AUX)
    Blend: AUG-CC-PVTZ-JKFIT + DEF2-UNIVERSAL-JKFIT

    Orbital Energies [Eh]
    ---------------------

    Doubly Occupied:

       1A   -489.720820     2A    -64.860770     3A    -58.215260
       4A    -58.215259     5A    -58.215258     6A     -9.532948
       7A     -7.140294     8A     -7.140292     9A     -7.140283
      10A     -2.881971    11A     -2.881970    12A     -2.881966
      13A     -2.881964    14A     -2.881963    15A     -0.685997
      16A     -0.139340    17A     -0.139337    18A     -0.139337

  @DF-RHF Final Energy: -2572.53368287874309

   => Energetics <=

    Nuclear Repulsion Energy =              0.0000000000000000
    One-Electron Energy =               -3593.6773046411694850
    Two-Electron Energy =                1021.1436217624262781
    Total Energy =                      -2572.5336828787430932
 Dipole X            :       -205.2467107          199.5450350           -5.7016758
 Dipole Y            :         -0.0000724            0.0000000           -0.0000724
 Dipole Z            :         -0.0000000            0.0000000           -0.0000000
 Magnitude           :                                                    5.7016758

    SAPT Results
  --------------------------------------------------------------------------------------------------------
    Electrostatics                -40.03737961 [mEh]     -25.12383501 [kcal/mol]    -105.11812568 [kJ/mol]
      Elst10,r                    -39.39034741 [mEh]     -24.71781617 [kcal/mol]    -103.41934287 [kJ/mol]
      Elst12,r                     -0.64703220 [mEh]      -0.40601883 [kcal/mol]      -1.69878281 [kJ/mol]

    Exchange                       19.89278970 [mEh]      12.48291400 [kcal/mol]      52.22851216 [kJ/mol]
      Exch10                       17.81370797 [mEh]      11.17827052 [kcal/mol]      46.76988384 [kJ/mol]
      Exch10(S^2)                  17.62117309 [mEh]      11.05745305 [kcal/mol]      46.26438357 [kJ/mol]
      Exch11(S^2)                   0.66102277 [mEh]       0.41479805 [kcal/mol]       1.73551504 [kJ/mol]
      Exch12(S^2)                   1.41805895 [mEh]       0.88984543 [kcal/mol]       3.72311327 [kJ/mol]

    Induction                     -12.18023638 [mEh]      -7.64321372 [kcal/mol]     -31.97920620 [kJ/mol]
      Ind20,r                     -48.02635500 [mEh]     -30.13699276 [kcal/mol]    -126.09317769 [kJ/mol]
      Ind22                        -5.59775321 [mEh]      -3.51264317 [kcal/mol]     -14.69689903 [kJ/mol]
      Exch-Ind20,r                 35.23335213 [mEh]      22.10926225 [kcal/mol]      92.50515326 [kJ/mol]
      Exch-Ind22                    4.10665373 [mEh]       2.57696412 [kcal/mol]      10.78201788 [kJ/mol]
      delta HF,r (2)                2.10386598 [mEh]       1.32019583 [kcal/mol]       5.52369937 [kJ/mol]

    Dispersion                     -5.51333051 [mEh]      -3.45966713 [kcal/mol]     -14.47524726 [kJ/mol]
      Disp20                       -6.95492400 [mEh]      -4.36428070 [kcal/mol]     -18.26015045 [kJ/mol]
      Disp21                        0.84300866 [mEh]       0.52899592 [kcal/mol]       2.21331893 [kJ/mol]
      Disp22 (SDQ)                 -0.03677948 [mEh]      -0.02307947 [kcal/mol]      -0.09656452 [kJ/mol]
      Disp22 (T)                   -1.13483772 [mEh]      -0.71212142 [kcal/mol]      -2.97951601 [kJ/mol]
      Est. Disp22 (T)              -1.27923569 [mEh]      -0.80273252 [kcal/mol]      -3.35863285 [kJ/mol]
      Exch-Disp20                   1.91460000 [mEh]       1.20142964 [kcal/mol]       5.02678162 [kJ/mol]

  Total HF                        -32.26577633 [mEh]     -20.24708033 [kcal/mol]     -84.71378409 [kJ/mol]
  Total SAPT0                     -37.30610033 [mEh]     -23.40993139 [kcal/mol]     -97.94715292 [kJ/mol]
  Total SAPT2                     -37.36515028 [mEh]     -23.44698579 [kcal/mol]     -98.10218855 [kJ/mol]
  Total SAPT2+                    -37.83815680 [mEh]     -23.74380186 [kcal/mol]     -99.34406699 [kJ/mol]

  Special recipe for scaled SAPT0 (see Manual):
    Electrostatics sSAPT0         -39.39034741 [mEh]     -24.71781617 [kcal/mol]    -103.41934287 [kJ/mol]
    Exchange sSAPT0                17.81370797 [mEh]      11.17827052 [kcal/mol]      46.76988384 [kJ/mol]
    Induction sSAPT0               -9.52155745 [mEh]      -5.97486751 [kcal/mol]     -24.99884565 [kJ/mol]
    Dispersion sSAPT0              -4.97687708 [mEh]      -3.12303752 [kcal/mol]     -13.06678897 [kJ/mol]
  Total sSAPT0                    -36.07507397 [mEh]     -22.63745068 [kcal/mol]     -94.71509365 [kJ/mol]
  --------------------------------------------------------------------------------------------------------

*** Psi4 exiting successfully. Buy a developer a beer!
