                               Psi4 1.9 release

  ==> Input File <==

--------------------------------------------------------------------------
MEMORY 60 GB

molecule dimer {
0 1
Na     0.000000     0.000000     0.000000
Br     0.000000     2.514159     0.000000
--
-1 1
Br     3.268407     0.000000     0.000000

units ang
no_reorient
no_com
symmetry c1
}

set {
basis        aug-cc-pVTZ
scf_type     df
}

energy("sapt2+")
--------------------------------------------------------------------------

  //              Dimer HF             //
    Molecular point group: c1
  Charge       = -1
  Multiplicity = 1
  Basis Set: AUG-CC-PVTZ
    Blend: AUG-CC-PVTZ
  Basis Set: (AUG-CC-PVTZ AUX)
    Blend: AUG-CC-PVTZ-JKFIT + DEF2-UNIVERSAL-JKFIT
  @DF-RHF Final Energy: -5306.96849180618665
    Total Energy =                      -5306.9684918061866483
 Dipole X            :       -221.5181855          216.1737934           -5.3443921
 Dipole Y            :       -170.0756422          166.2875181           -3.7881241
 Dipole Z            :         -0.0000000            0.0000000           -0.0000000
 Magnitude           :                                                    6.5507565
  //            Monomer A HF           //
    Molecular point group: c1
  Multiplicity = 1
  Basis Set: AUG-CC-PVTZ
    Blend: AUG-CC-PVTZ
  Basis Set: (AUG-CC-PVTZ AUX)
    Blend: AUG-CC-PVTZ-JKFIT + DEF2-UNIVERSAL-JKFIT
  @DF-RHF Final Energy: -2734.40588511584565
    Total Energy =                      -2734.4058851158461039
  //            Monomer B HF           //
    Molecular point group: c1

    Geometry (in Angstrom), charge = -1, multiplicity = 1:

       Center              X                  Y                   Z               Mass
    ------------   -----------------  -----------------  -----------------  -----------------
      Gh(NA)          0.000000000000     0.000000000000     0.000000000000    22.989769282000
      Gh(BR)          0.000000000000     2.514159000000     0.000000000000    78.918337600000
         BR           3.268407000000     0.000000000000     0.000000000000    78.918337600000

  Charge       = -1
  Multiplicity = 1
  Basis Set: AUG-CC-PVTZ
    Blend: AUG-CC-PVTZ
  Basis Set: (AUG-CC-PVTZ AUX)
    Blend: AUG-CC-PVTZ-JKFIT + DEF2-UNIVERSAL-JKFIT

    Orbital Energies [Eh]
    ---------------------

    Doubly Occupied:

       1A   -489.720734     2A    -64.860710     3A    -58.215195
       4A    -58.215195     5A    -58.215194     6A     -9.532929
       7A     -7.140275     8A     -7.140274     9A     -7.140266
      10A     -2.881950    11A     -2.881949    12A     -2.881947
      13A     -2.881945    14A     -2.881944    15A     -0.685998
      16A     -0.139341    17A     -0.139337    18A     -0.139337

  @DF-RHF Final Energy: -2572.53368001577610

   => Energetics <=

    Nuclear Repulsion Energy =              0.0000000000000000
    One-Electron Energy =               -3593.6783190109490533
    Two-Electron Energy =                1021.1446389951730680
    Total Energy =                      -2572.5336800157760990
 Dipole X            :       -222.3505069          216.1737934           -6.1767135
 Dipole Y            :         -0.0000478            0.0000000           -0.0000478
 Dipole Z            :          0.0000000            0.0000000            0.0000000
 Magnitude           :                                                    6.1767135

    SAPT Results
  --------------------------------------------------------------------------------------------------------
    Electrostatics                -30.78426659 [mEh]     -19.31741893 [kcal/mol]     -80.82408080 [kJ/mol]
      Elst10,r                    -30.49999678 [mEh]     -19.13903693 [kcal/mol]     -80.07773050 [kJ/mol]
      Elst12,r                     -0.28426982 [mEh]      -0.17838200 [kcal/mol]      -0.74635030 [kJ/mol]

    Exchange                       11.06373039 [mEh]       6.94259563 [kcal/mol]      29.04782014 [kJ/mol]
      Exch10                        9.71304455 [mEh]       6.09502747 [kcal/mol]      25.50159495 [kJ/mol]
      Exch10(S^2)                   9.64782901 [mEh]       6.05410410 [kcal/mol]      25.33037157 [kJ/mol]
      Exch11(S^2)                   0.46970742 [mEh]       0.29474586 [kcal/mol]       1.23321667 [kJ/mol]
      Exch12(S^2)                   0.88097842 [mEh]       0.55282230 [kcal/mol]       2.31300852 [kJ/mol]

    Induction                      -9.35200711 [mEh]      -5.86847306 [kcal/mol]     -24.55369129 [kJ/mol]
      Ind20,r                     -29.32409328 [mEh]     -18.40114634 [kcal/mol]     -76.99039630 [kJ/mol]
      Ind22                        -3.55022828 [mEh]      -2.22780188 [kcal/mol]      -9.32112307 [kJ/mol]
      Exch-Ind20,r                 19.31089158 [mEh]      12.11776742 [kcal/mol]      50.70073887 [kJ/mol]
      Exch-Ind22                    2.33794351 [mEh]       1.46708170 [kcal/mol]       6.13826983 [kJ/mol]
      delta HF,r (2)                1.87347936 [mEh]       1.17562605 [kcal/mol]       4.91881938 [kJ/mol]

    Dispersion                     -4.16717131 [mEh]      -2.61493948 [kcal/mol]     -10.94090678 [kJ/mol]
      Disp20                       -5.02588837 [mEh]      -3.15379257 [kcal/mol]     -13.19546809 [kJ/mol]
      Disp21                        0.60184314 [mEh]       0.37766227 [kcal/mol]       1.58013895 [kJ/mol]
      Disp22 (SDQ)                 -0.03515315 [mEh]      -0.02205893 [kcal/mol]      -0.09229458 [kJ/mol]
      Disp22 (T)                   -0.83756920 [mEh]      -0.52558261 [kcal/mol]      -2.19903763 [kJ/mol]
      Est. Disp22 (T)              -0.95300489 [mEh]      -0.59801960 [kcal/mol]      -2.50211400 [kJ/mol]
      Exch-Disp20                   1.24503196 [mEh]       0.78126935 [kcal/mol]       3.26883095 [kJ/mol]

  Total HF                        -28.92667456 [mEh]     -18.15176233 [kcal/mol]     -75.94697361 [kJ/mol]
  Total SAPT0                     -32.70753098 [mEh]     -20.52428555 [kcal/mol]     -85.87361075 [kJ/mol]
  Total SAPT2                     -32.85339973 [mEh]     -20.61581958 [kcal/mol]     -86.25658910 [kJ/mol]
  Total SAPT2+                    -33.23971463 [mEh]     -20.85823584 [kcal/mol]     -87.27085874 [kJ/mol]

  Special recipe for scaled SAPT0 (see Manual):
    Electrostatics sSAPT0         -30.49999678 [mEh]     -19.13903693 [kcal/mol]     -80.07773050 [kJ/mol]
    Exchange sSAPT0                 9.71304455 [mEh]       6.09502747 [kcal/mol]      25.50159495 [kJ/mol]
    Induction sSAPT0               -7.74546714 [mEh]      -4.86035401 [kcal/mol]     -20.33572117 [kJ/mol]
    Dispersion sSAPT0              -3.75543758 [mEh]      -2.35657266 [kcal/mol]      -9.85990001 [kJ/mol]
  Total sSAPT0                    -32.28785695 [mEh]     -20.26093612 [kcal/mol]     -84.77175673 [kJ/mol]
  --------------------------------------------------------------------------------------------------------

*** Psi4 exiting successfully. Buy a developer a beer!
