                               Psi4 1.9 release

  ==> Input File <==

--------------------------------------------------------------------------
MEMORY 60 GB

molecule dimer {
0 1
Na     0.000000     0.000000     0.000000
Br     0.000000     2.514159     0.000000
--
-1 1
Br     2.514159     0.000000     0.000000

units ang
no_reorient
no_com
symmetry c1
}

set {
basis        aug-cc-pVTZ
scf_type     df
}

energy("sapt2+")
--------------------------------------------------------------------------

  //              Dimer HF             //
    Molecular point group: c1
  Charge       = -1
  Multiplicity = 1
  Basis Set: AUG-CC-PVTZ
    Blend: AUG-CC-PVTZ
  Basis Set: (AUG-CC-PVTZ AUX)
    Blend: AUG-CC-PVTZ-JKFIT + DEF2-UNIVERSAL-JKFIT
  @DF-RHF Final Energy: -5306.96723792702778
    Total Energy =                      -5306.9672379270277816
 Dipole X            :       -170.1202413          166.2875181           -3.8327232
 Dipole Y            :       -170.1202413          166.2875181           -3.8327232
 Dipole Z            :          0.0000000            0.0000000            0.0000000
 Magnitude           :                                                    5.4202892
  //            Monomer A HF           //
    Molecular point group: c1
  Multiplicity = 1
  Basis Set: AUG-CC-PVTZ
    Blend: AUG-CC-PVTZ
  Basis Set: (AUG-CC-PVTZ AUX)
    Blend: AUG-CC-PVTZ-JKFIT + DEF2-UNIVERSAL-JKFIT
  @DF-RHF Final Energy: -2734.40592836847918
    Total Energy =                      -2734.4059283684791808
  //            Monomer B HF           //
    Molecular point group: c1

    Geometry (in Angstrom), charge = -1, multiplicity = 1:

       Center              X                  Y                   Z               Mass
    ------------   -----------------  -----------------  -----------------  -----------------
      Gh(NA)          0.000000000000     0.000000000000     0.000000000000    22.989769282000
      Gh(BR)          0.000000000000     2.514159000000     0.000000000000    78.918337600000
         BR           2.514159000000     0.000000000000     0.000000000000    78.918337600000

  Charge       = -1
  Multiplicity = 1
  Basis Set: AUG-CC-PVTZ
    Blend: AUG-CC-PVTZ
  Basis Set: (AUG-CC-PVTZ AUX)
    Blend: AUG-CC-PVTZ-JKFIT + DEF2-UNIVERSAL-JKFIT

    Orbital Energies [Eh]
    ---------------------

    Doubly Occupied:

       1A   -489.721090     2A    -64.860962     3A    -58.215463
       4A    -58.215463     5A    -58.215458     6A     -9.533006
       7A     -7.140353     8A     -7.140350     9A     -7.140338
      10A     -2.882039    11A     -2.882037    12A     -2.882029
      13A     -2.882026    14A     -2.882019    15A     -0.685997
      16A     -0.139339    17A     -0.139339    18A     -0.139338

  @DF-RHF Final Energy: -2572.53369062949287

   => Energetics <=

    Nuclear Repulsion Energy =              0.0000000000000000
    One-Electron Energy =               -3593.6740896147475723
    Two-Electron Energy =                1021.1403989852550467
    Total Energy =                      -2572.5336906294924120
 Dipole X            :       -171.0391783          166.2875181           -4.7516602
 Dipole Y            :         -0.0000932            0.0000000           -0.0000932
 Dipole Z            :         -0.0000000            0.0000000           -0.0000000
 Magnitude           :                                                    4.7516602

    SAPT Results
  --------------------------------------------------------------------------------------------------------
    Electrostatics                -74.36071174 [mEh]     -46.66205109 [kcal/mol]    -195.23402178 [kJ/mol]
      Elst10,r                    -72.48661125 [mEh]     -45.48603528 [kcal/mol]    -190.31357161 [kJ/mol]
      Elst12,r                     -1.87410049 [mEh]      -1.17601581 [kcal/mol]      -4.92045017 [kJ/mol]

    Exchange                       65.74809045 [mEh]      41.25754964 [kcal/mol]     172.62158768 [kJ/mol]
      Exch10                       61.63473685 [mEh]      38.67638129 [kcal/mol]     161.82197932 [kJ/mol]
      Exch10(S^2)                  59.97608105 [mEh]      37.63555906 [kcal/mol]     157.46717909 [kJ/mol]
      Exch11(S^2)                   0.77126958 [mEh]       0.48397897 [kcal/mol]       2.02496799 [kJ/mol]
      Exch12(S^2)                   3.34208401 [mEh]       2.09718938 [kcal/mol]       8.77464037 [kJ/mol]

    Induction                     -19.02903031 [mEh]     -11.94089680 [kcal/mol]     -49.96071221 [kJ/mol]
      Ind20,r                    -138.87433889 [mEh]     -87.14496332 [kcal/mol]    -364.61452653 [kJ/mol]
      Ind22                       -13.96238901 [mEh]      -8.76153138 [kcal/mol]     -36.65824730 [kJ/mol]
      Exch-Ind20,r                116.37601336 [mEh]      73.02705090 [kcal/mol]     305.54518099 [kJ/mol]
      Exch-Ind22                   11.70041336 [mEh]       7.34212023 [kcal/mol]      30.71943104 [kJ/mol]
      delta HF,r (2)                5.73127087 [mEh]       3.59642677 [kcal/mol]      15.04744960 [kJ/mol]

    Dispersion                     -9.49187302 [mEh]      -5.95624025 [kcal/mol]     -24.92090919 [kJ/mol]
      Disp20                      -13.15541553 [mEh]      -8.25514788 [kcal/mol]     -34.53953872 [kJ/mol]
      Disp21                        1.67845227 [mEh]       1.05324470 [kcal/mol]       4.40677583 [kJ/mol]
      Disp22 (SDQ)                 -0.03275224 [mEh]      -0.02055234 [kcal/mol]      -0.08599100 [kJ/mol]
      Disp22 (T)                   -2.03381765 [mEh]      -1.27623985 [kcal/mol]      -5.33978752 [kJ/mol]
      Est. Disp22 (T)              -2.25501005 [mEh]      -1.41504017 [kcal/mol]      -5.92052808 [kJ/mol]
      Exch-Disp20                   4.27285253 [mEh]       2.68125545 [kcal/mol]      11.21837278 [kJ/mol]

  Total HF                        -27.61892906 [mEh]     -17.33113964 [kcal/mol]     -72.51348825 [kJ/mol]
  Total SAPT0                     -36.50149205 [mEh]     -22.90503207 [kcal/mol]     -95.83465418 [kJ/mol]
  Total SAPT2                     -36.52421461 [mEh]     -22.91929069 [kcal/mol]     -95.89431224 [kJ/mol]
  Total SAPT2+                    -37.13352463 [mEh]     -23.30163850 [kcal/mol]     -97.49405549 [kJ/mol]

  Special recipe for scaled SAPT0 (see Manual):
    Electrostatics sSAPT0         -72.48661125 [mEh]     -45.48603528 [kcal/mol]    -190.31357161 [kJ/mol]
    Exchange sSAPT0                61.63473685 [mEh]      38.67638129 [kcal/mol]     161.82197932 [kJ/mol]
    Induction sSAPT0               -6.84233824 [mEh]      -4.29363207 [kcal/mol]     -17.96455657 [kJ/mol]
    Dispersion sSAPT0              -8.51816789 [mEh]      -5.34523105 [kcal/mol]     -22.36444671 [kJ/mol]
  Total sSAPT0                    -26.21238052 [mEh]     -16.44851711 [kcal/mol]     -68.82059557 [kJ/mol]
  --------------------------------------------------------------------------------------------------------

*** Psi4 exiting successfully. Buy a developer a beer!
