                               Psi4 1.9 release

  ==> Input File <==

--------------------------------------------------------------------------
MEMORY 60 GB

molecule dimer {
0 1
Na     0.000000     0.000000     0.000000
Br     0.000000     2.514159     0.000000
--
-1 1
Br     5.028318     0.000000     0.000000

units ang
no_reorient
no_com
symmetry c1
}

set {
basis        aug-cc-pVTZ
scf_type     df
}

energy("sapt2+")
--------------------------------------------------------------------------

  //              Dimer HF             //
    Molecular point group: c1
  Charge       = -1
  Multiplicity = 1
  Basis Set: AUG-CC-PVTZ
    Blend: AUG-CC-PVTZ
  Basis Set: (AUG-CC-PVTZ AUX)
    Blend: AUG-CC-PVTZ-JKFIT + DEF2-UNIVERSAL-JKFIT
  @DF-RHF Final Energy: -5306.94896736097780
    Total Energy =                      -5306.9489673609768943
 Dipole X            :       -341.6698070          332.5750362           -9.0947708
 Dipole Y            :       -170.0423957          166.2875181           -3.7548776
 Dipole Z            :         -0.0000000            0.0000000           -0.0000000
 Magnitude           :                                                    9.8394086
  //            Monomer A HF           //
    Molecular point group: c1
  Multiplicity = 1
  Basis Set: AUG-CC-PVTZ
    Blend: AUG-CC-PVTZ
  Basis Set: (AUG-CC-PVTZ AUX)
    Blend: AUG-CC-PVTZ-JKFIT + DEF2-UNIVERSAL-JKFIT
  @DF-RHF Final Energy: -2734.40586601442328
    Total Energy =                      -2734.4058660144228270
  //            Monomer B HF           //
    Molecular point group: c1

    Geometry (in Angstrom), charge = -1, multiplicity = 1:

       Center              X                  Y                   Z               Mass
    ------------   -----------------  -----------------  -----------------  -----------------
      Gh(NA)          0.000000000000     0.000000000000     0.000000000000    22.989769282000
      Gh(BR)          0.000000000000     2.514159000000     0.000000000000    78.918337600000
         BR           5.028318000000     0.000000000000     0.000000000000    78.918337600000

  Charge       = -1
  Multiplicity = 1
  Basis Set: AUG-CC-PVTZ
    Blend: AUG-CC-PVTZ
  Basis Set: (AUG-CC-PVTZ AUX)
    Blend: AUG-CC-PVTZ-JKFIT + DEF2-UNIVERSAL-JKFIT

    Orbital Energies [Eh]
    ---------------------

    Doubly Occupied:

       1A   -489.720463     2A    -64.860523     3A    -58.214997
       4A    -58.214997     5A    -58.214996     6A     -9.532875
       7A     -7.140219     8A     -7.140218     9A     -7.140215
      10A     -2.881887    11A     -2.881887    12A     -2.881886
      13A     -2.881885    14A     -2.881880    15A     -0.686002
      16A     -0.139340    17A     -0.139340    18A     -0.139339

  @DF-RHF Final Energy: -2572.53367116719073

   => Energetics <=

    Nuclear Repulsion Energy =              0.0000000000000000
    One-Electron Energy =               -3593.6814452050575710
    Two-Electron Energy =                1021.1477740378669523
    Total Energy =                      -2572.5336711671907324
 Dipole X            :       -342.0773521          332.5750362           -9.5023159
 Dipole Y            :         -0.0000552            0.0000000           -0.0000552
 Dipole Z            :          0.0000000            0.0000000            0.0000000
 Magnitude           :                                                    9.5023159

    SAPT Results
  --------------------------------------------------------------------------------------------------------
    Electrostatics                 -8.33125099 [mEh]      -5.22793892 [kcal/mol]     -21.87369645 [kJ/mol]
      Elst10,r                     -8.54561846 [mEh]      -5.36245654 [kcal/mol]     -22.43651817 [kJ/mol]
      Elst12,r                      0.21436747 [mEh]       0.13451762 [kcal/mol]       0.56282173 [kJ/mol]

    Exchange                        0.18474718 [mEh]       0.11593060 [kcal/mol]       0.48505364 [kJ/mol]
      Exch10                        0.14559586 [mEh]       0.09136278 [kcal/mol]       0.38226188 [kJ/mol]
      Exch10(S^2)                   0.14557800 [mEh]       0.09135157 [kcal/mol]       0.38221499 [kJ/mol]
      Exch11(S^2)                   0.01533390 [mEh]       0.00962217 [kcal/mol]       0.04025916 [kJ/mol]
      Exch12(S^2)                   0.02381741 [mEh]       0.01494565 [kcal/mol]       0.06253261 [kJ/mol]

    Induction                      -1.24295065 [mEh]      -0.77996331 [kcal/mol]      -3.26336647 [kJ/mol]
      Ind20,r                      -2.40579156 [mEh]      -1.50965700 [kcal/mol]      -6.31640487 [kJ/mol]
      Ind22                        -0.24452349 [mEh]      -0.15344081 [kcal/mol]      -0.64199634 [kJ/mol]
      Exch-Ind20,r                  0.31217791 [mEh]       0.19589459 [kcal/mol]       0.81962298 [kJ/mol]
      Exch-Ind22                    0.03172961 [mEh]       0.01991063 [kcal/mol]       0.08330608 [kJ/mol]
      delta HF,r (2)                1.06345689 [mEh]       0.66732927 [kcal/mol]       2.79210568 [kJ/mol]

    Dispersion                     -0.57242774 [mEh]      -0.35920383 [kcal/mol]      -1.50290883 [kJ/mol]
      Disp20                       -0.56568562 [mEh]      -0.35497309 [kcal/mol]      -1.48520740 [kJ/mol]
      Disp21                        0.07915014 [mEh]       0.04966746 [kcal/mol]       0.20780867 [kJ/mol]
      Disp22 (SDQ)                 -0.00863849 [mEh]      -0.00542073 [kcal/mol]      -0.02268035 [kJ/mol]
      Disp22 (T)                   -0.10850168 [mEh]      -0.06808583 [kcal/mol]      -0.28487112 [kJ/mol]
      Est. Disp22 (T)              -0.11991434 [mEh]      -0.07524739 [kcal/mol]      -0.31483507 [kJ/mol]
      Exch-Disp20                   0.04266058 [mEh]       0.02676992 [kcal/mol]       0.11200533 [kJ/mol]

  Total HF                         -9.43017936 [mEh]      -5.91752689 [kcal/mol]     -24.75893251 [kJ/mol]
  Total SAPT0                      -9.95320441 [mEh]      -6.24573006 [kcal/mol]     -26.13213459 [kJ/mol]
  Total SAPT2                      -9.91247951 [mEh]      -6.22017480 [kcal/mol]     -26.02521136 [kJ/mol]
  Total SAPT2+                     -9.96188220 [mEh]      -6.25117546 [kcal/mol]     -26.15491811 [kJ/mol]

  Special recipe for scaled SAPT0 (see Manual):
    Electrostatics sSAPT0          -8.54561846 [mEh]      -5.36245654 [kcal/mol]     -22.43651817 [kJ/mol]
    Exchange sSAPT0                 0.14559586 [mEh]       0.09136278 [kcal/mol]       0.38226188 [kJ/mol]
    Induction sSAPT0               -1.03004186 [mEh]      -0.64636102 [kcal/mol]      -2.70437452 [kJ/mol]
    Dispersion sSAPT0              -0.52300935 [mEh]      -0.32819332 [kcal/mol]      -1.37316085 [kJ/mol]
  Total sSAPT0                     -9.95307380 [mEh]      -6.24564810 [kcal/mol]     -26.13179167 [kJ/mol]
  --------------------------------------------------------------------------------------------------------

*** Psi4 exiting successfully. Buy a developer a beer!
