                               Psi4 1.9 release

  ==> Input File <==

--------------------------------------------------------------------------
MEMORY 60 GB

molecule dimer {
0 1
Na     0.000000     0.000000     0.000000
Br     0.000000     2.514159     0.000000
--
-1 1
Br     2.765575     0.000000     0.000000

units ang
no_reorient
no_com
symmetry c1
}

set {
basis        aug-cc-pVTZ
scf_type     df
}

energy("sapt2+")
--------------------------------------------------------------------------

  //              Dimer HF             //
    Molecular point group: c1
  Charge       = -1
  Multiplicity = 1
  Basis Set: AUG-CC-PVTZ
    Blend: AUG-CC-PVTZ
  Basis Set: (AUG-CC-PVTZ AUX)
    Blend: AUG-CC-PVTZ-JKFIT + DEF2-UNIVERSAL-JKFIT
  @DF-RHF Final Energy: -5306.97281236791969
    Total Energy =                      -5306.9728123679196869
 Dipole X            :       -187.2247687          182.9162765           -4.3084922
 Dipole Y            :       -170.1056350          166.2875181           -3.8181169
 Dipole Z            :          0.0000000            0.0000000            0.0000000
 Magnitude           :                                                    5.7568326
  //            Monomer A HF           //
    Molecular point group: c1
  Multiplicity = 1
  Basis Set: AUG-CC-PVTZ
    Blend: AUG-CC-PVTZ
  Basis Set: (AUG-CC-PVTZ AUX)
    Blend: AUG-CC-PVTZ-JKFIT + DEF2-UNIVERSAL-JKFIT
  @DF-RHF Final Energy: -2734.40591313374171
    Total Energy =                      -2734.4059131337417057
  //            Monomer B HF           //
    Molecular point group: c1

    Geometry (in Angstrom), charge = -1, multiplicity = 1:

       Center              X                  Y                   Z               Mass
    ------------   -----------------  -----------------  -----------------  -----------------
      Gh(NA)          0.000000000000     0.000000000000     0.000000000000    22.989769282000
      Gh(BR)          0.000000000000     2.514159000000     0.000000000000    78.918337600000
         BR           2.765575000000     0.000000000000     0.000000000000    78.918337600000

  Charge       = -1
  Multiplicity = 1
  Basis Set: AUG-CC-PVTZ
    Blend: AUG-CC-PVTZ
  Basis Set: (AUG-CC-PVTZ AUX)
    Blend: AUG-CC-PVTZ-JKFIT + DEF2-UNIVERSAL-JKFIT

    Orbital Energies [Eh]
    ---------------------

    Doubly Occupied:

       1A   -489.720938     2A    -64.860855     3A    -58.215349
       4A    -58.215349     5A    -58.215346     6A     -9.532973
       7A     -7.140321     8A     -7.140318     9A     -7.140308
      10A     -2.882002    11A     -2.882001    12A     -2.881994
      13A     -2.881992    14A     -2.881986    15A     -0.685997
      16A     -0.139339    17A     -0.139338    18A     -0.139337

  @DF-RHF Final Energy: -2572.53368676218361

   => Energetics <=

    Nuclear Repulsion Energy =              0.0000000000000000
    One-Electron Energy =               -3593.6758879884578164
    Two-Electron Energy =                1021.1422012262743237
    Total Energy =                      -2572.5336867621836063
 Dipole X            :       -188.1429156          182.9162765           -5.2266391
 Dipole Y            :         -0.0000836            0.0000000           -0.0000836
 Dipole Z            :          0.0000000            0.0000000            0.0000000
 Magnitude           :                                                    5.2266391

    SAPT Results
  --------------------------------------------------------------------------------------------------------
    Electrostatics                -53.67300128 [mEh]     -33.68031679 [kcal/mol]    -140.91844545 [kJ/mol]
      Elst10,r                    -52.51092141 [mEh]     -32.95110066 [kcal/mol]    -137.86740517 [kJ/mol]
      Elst12,r                     -1.16207987 [mEh]      -0.72921613 [kcal/mol]      -3.05104028 [kJ/mol]

    Exchange                       35.95517212 [mEh]      22.56221114 [kcal/mol]      94.40029140 [kJ/mol]
      Exch10                       32.91469567 [mEh]      20.65428336 [kcal/mol]      86.41752156 [kJ/mol]
      Exch10(S^2)                  32.35112160 [mEh]      20.30063529 [kcal/mol]      84.93785806 [kJ/mol]
      Exch11(S^2)                   0.82580605 [mEh]       0.51820112 [kcal/mol]       2.16815348 [kJ/mol]
      Exch12(S^2)                   2.21467041 [mEh]       1.38972666 [kcal/mol]       5.81461636 [kJ/mol]

    Induction                     -15.43214541 [mEh]      -9.68381745 [kcal/mol]     -40.51709220 [kJ/mol]
      Ind20,r                     -80.71960297 [mEh]     -50.65231558 [kcal/mol]    -211.92928840 [kJ/mol]
      Ind22                        -8.83965536 [mEh]      -5.54696748 [kcal/mol]     -23.20851195 [kJ/mol]
      Exch-Ind20,r                 64.13766016 [mEh]      40.24698938 [kcal/mol]     168.39340355 [kJ/mol]
      Exch-Ind22                    7.02375619 [mEh]       4.40747355 [kcal/mol]      18.44086935 [kJ/mol]
      delta HF,r (2)                2.96569656 [mEh]       1.86100269 [kcal/mol]       7.78643525 [kJ/mol]

    Dispersion                     -7.24746107 [mEh]      -4.54785048 [kcal/mol]     -19.02820642 [kJ/mol]
      Disp20                       -9.58468654 [mEh]      -6.01448160 [kcal/mol]     -25.16459103 [kJ/mol]
      Disp21                        1.18829489 [mEh]       0.74566630 [kcal/mol]       3.11986781 [kJ/mol]
      Disp22 (SDQ)                 -0.03518845 [mEh]      -0.02208109 [kcal/mol]      -0.09238728 [kJ/mol]
      Disp22 (T)                   -1.51684230 [mEh]      -0.95183291 [kcal/mol]      -3.98246890 [kJ/mol]
      Est. Disp22 (T)              -1.70355210 [mEh]      -1.06899508 [kcal/mol]      -4.47267544 [kJ/mol]
      Exch-Disp20                   2.88767113 [mEh]       1.81204099 [kcal/mol]       7.58157952 [kJ/mol]

  Total HF                        -33.21247199 [mEh]     -20.84114082 [kcal/mol]     -87.19933321 [kJ/mol]
  Total SAPT0                     -39.90948740 [mEh]     -25.04358144 [kcal/mol]    -104.78234472 [kJ/mol]
  Total SAPT2                     -39.84698997 [mEh]     -25.00436371 [kcal/mol]    -104.61825776 [kJ/mol]
  Total SAPT2+                    -40.39743564 [mEh]     -25.34977358 [kcal/mol]    -106.06345266 [kJ/mol]

  Special recipe for scaled SAPT0 (see Manual):
    Electrostatics sSAPT0         -52.51092141 [mEh]     -32.95110066 [kcal/mol]    -137.86740517 [kJ/mol]
    Exchange sSAPT0                32.91469567 [mEh]      20.65428336 [kcal/mol]      86.41752156 [kJ/mol]
    Induction sSAPT0              -10.20557624 [mEh]      -6.40409577 [kcal/mol]     -26.79473672 [kJ/mol]
    Dispersion sSAPT0              -6.54345674 [mEh]      -4.10608110 [kcal/mol]     -17.17984330 [kJ/mol]
  Total sSAPT0                    -36.34525872 [mEh]     -22.80699418 [kcal/mol]     -95.42446363 [kJ/mol]
  --------------------------------------------------------------------------------------------------------

*** Psi4 exiting successfully. Buy a developer a beer!
