                               Psi4 1.9 release

  ==> Input File <==

--------------------------------------------------------------------------
MEMORY 60 GB

molecule dimer {
0 1
F      0.000000     0.000000     0.000000
K      0.000000     2.175180     0.000000
--
1 1
K      2.175180     0.000000     0.000000

units ang
no_reorient
no_com
symmetry c1
}

set {
basis        aug-cc-pVTZ
scf_type     df
}

energy("sapt2+")
--------------------------------------------------------------------------

  //              Dimer HF             //
    Molecular point group: c1
  Charge       = 1
  Multiplicity = 1
  Basis Set: AUG-CC-PVTZ
    Blend: AUG-CC-PVTZ
  Basis Set: (AUG-CC-PVTZ AUX)
    Blend: AUG-CC-PVTZ-JKFIT + DEF2-UNIVERSAL-JKFIT
  @DF-RHF Final Energy: -1297.73526777739789
    Total Energy =                      -1297.7352677773978940
 Dipole X            :        -74.5416244           78.0993950            3.5577706
 Dipole Y            :        -74.5416244           78.0993950            3.5577706
 Dipole Z            :          0.0000000            0.0000000            0.0000000
 Magnitude           :                                                    5.0314475
  //            Monomer A HF           //
    Molecular point group: c1
  Multiplicity = 1
  Basis Set: AUG-CC-PVTZ
    Blend: AUG-CC-PVTZ
  Basis Set: (AUG-CC-PVTZ AUX)
    Blend: AUG-CC-PVTZ-JKFIT + DEF2-UNIVERSAL-JKFIT
  @DF-RHF Final Energy:  -698.68430261325022
    Total Energy =                       -698.6843026132503383
  //            Monomer B HF           //
    Molecular point group: c1

    Geometry (in Angstrom), charge = 1, multiplicity = 1:

       Center              X                  Y                   Z               Mass
    ------------   -----------------  -----------------  -----------------  -----------------
      Gh(F)           0.000000000000     0.000000000000     0.000000000000    18.998403162730
      Gh(K)           0.000000000000     2.175180000000     0.000000000000    38.963706486400
         K            2.175180000000     0.000000000000     0.000000000000    38.963706486400

  Charge       = 1
  Multiplicity = 1
  Basis Set: AUG-CC-PVTZ
    Blend: AUG-CC-PVTZ
  Basis Set: (AUG-CC-PVTZ AUX)
    Blend: AUG-CC-PVTZ-JKFIT + DEF2-UNIVERSAL-JKFIT

    Orbital Energies [Eh]
    ---------------------

    Doubly Occupied:

       1A   -133.753361     2A    -14.708892     3A    -11.738962
       4A    -11.738957     5A    -11.738956     6A     -1.964213
       7A     -1.170889     8A     -1.170840     9A     -1.170816

  @DF-RHF Final Energy:  -599.01751007723226

   => Energetics <=

    Nuclear Repulsion Energy =              0.0000000000000000
    One-Electron Energy =                -819.7232476575501323
    Two-Electron Energy =                 220.7057375803178161
    Total Energy =                       -599.0175100772323731
 Dipole X            :        -73.9892992           78.0993950            4.1100958
 Dipole Y            :          0.0001662            0.0000000            0.0001662
 Dipole Z            :         -0.0000000            0.0000000           -0.0000000
 Magnitude           :                                                    4.1100958

    SAPT Results
  --------------------------------------------------------------------------------------------------------
    Electrostatics                -89.70457288 [mEh]     -56.29046932 [kcal/mol]    -235.51932365 [kJ/mol]
      Elst10,r                    -85.01433255 [mEh]     -53.34729908 [kcal/mol]    -223.20509937 [kJ/mol]
      Elst12,r                     -4.69024033 [mEh]      -2.94317024 [kcal/mol]     -12.31422429 [kJ/mol]

    Exchange                       83.47373188 [mEh]      52.38055756 [kcal/mol]     219.16025285 [kJ/mol]
      Exch10                       71.75776256 [mEh]      45.02867582 [kcal/mol]     188.39997965 [kJ/mol]
      Exch10(S^2)                  69.92392810 [mEh]      43.87792733 [kcal/mol]     183.58524794 [kJ/mol]
      Exch11(S^2)                  -0.86650294 [mEh]      -0.54373881 [kcal/mol]      -2.27500316 [kJ/mol]
      Exch12(S^2)                  12.58247226 [mEh]       7.89562054 [kcal/mol]      33.03527636 [kJ/mol]

    Induction                     -25.75923164 [mEh]     -16.16416189 [kcal/mol]     -67.63085335 [kJ/mol]
      Ind20,r                    -106.14617042 [mEh]     -66.60772754 [kcal/mol]    -278.68673205 [kJ/mol]
      Ind22                       -32.00679961 [mEh]     -20.08456998 [kcal/mol]     -84.03384081 [kJ/mol]
      Exch-Ind20,r                 87.70482113 [mEh]      55.03560615 [kcal/mol]     230.26897614 [kJ/mol]
      Exch-Ind22                   26.44608490 [mEh]      16.59516882 [kcal/mol]      69.43418634 [kJ/mol]
      delta HF,r (2)               -1.75716763 [mEh]      -1.10263933 [kcal/mol]      -4.61344298 [kJ/mol]

    Dispersion                     -7.51811437 [mEh]      -4.71768799 [kcal/mol]     -19.73880657 [kJ/mol]
      Disp20                       -9.38209938 [mEh]      -5.88735624 [kcal/mol]     -24.63269852 [kJ/mol]
      Disp21                        1.12848378 [mEh]       0.70813426 [kcal/mol]       2.96283375 [kJ/mol]
      Disp22 (SDQ)                 -0.55284255 [mEh]      -0.34691394 [kcal/mol]      -1.45148791 [kJ/mol]
      Disp22 (T)                   -1.06282159 [mEh]      -0.66693061 [kcal/mol]      -2.79043769 [kJ/mol]
      Est. Disp22 (T)              -1.15150145 [mEh]      -0.72257807 [kcal/mol]      -3.02326663 [kJ/mol]
      Exch-Disp20                   2.43984522 [mEh]       1.53102599 [kcal/mol]       6.40581275 [kJ/mol]

  Total HF                        -33.45508692 [mEh]     -20.99338399 [kcal/mol]     -87.83631860 [kJ/mol]
  Total SAPT0                     -40.39734107 [mEh]     -25.34971424 [kcal/mol]    -106.06320437 [kJ/mol]
  Total SAPT2                     -38.93232680 [mEh]     -24.43040390 [kcal/mol]    -102.21680993 [kJ/mol]
  Total SAPT2+                    -39.50818702 [mEh]     -24.79176164 [kcal/mol]    -103.72873072 [kJ/mol]

  Special recipe for scaled SAPT0 (see Manual):
    Electrostatics sSAPT0         -85.01433255 [mEh]     -53.34729908 [kcal/mol]    -223.20509937 [kJ/mol]
    Exchange sSAPT0                71.75776256 [mEh]      45.02867582 [kcal/mol]     188.39997965 [kJ/mol]
    Induction sSAPT0              -13.11548629 [mEh]      -8.23009190 [kcal/mol]     -34.43470451 [kJ/mol]
    Dispersion sSAPT0              -6.74521255 [mEh]      -4.23268478 [kcal/mol]     -17.70955312 [kJ/mol]
  Total sSAPT0                    -33.11726884 [mEh]     -20.78139994 [kcal/mol]     -86.94937735 [kJ/mol]
  --------------------------------------------------------------------------------------------------------

*** Psi4 exiting successfully. Buy a developer a beer!
