                               Psi4 1.9 release

  ==> Input File <==

--------------------------------------------------------------------------
MEMORY 60 GB

molecule dimer {
0 1
F      0.000000     0.000000     0.000000
K      0.000000     2.175180     0.000000
--
1 1
K      2.827734     0.000000     0.000000

units ang
no_reorient
no_com
symmetry c1
}

set {
basis        aug-cc-pVTZ
scf_type     df
}

energy("sapt2+")
--------------------------------------------------------------------------

  //              Dimer HF             //
    Molecular point group: c1
  Charge       = 1
  Multiplicity = 1
  Basis Set: AUG-CC-PVTZ
    Blend: AUG-CC-PVTZ
  Basis Set: (AUG-CC-PVTZ AUX)
    Blend: AUG-CC-PVTZ-JKFIT + DEF2-UNIVERSAL-JKFIT
  @DF-RHF Final Energy: -1297.73709822129922
    Total Energy =                      -1297.7370982212992203
 Dipole X            :        -96.5766777          101.5292135            4.9525358
 Dipole Y            :        -74.5718964           78.0993950            3.5274986
 Dipole Z            :         -0.0000000            0.0000000           -0.0000000
 Magnitude           :                                                    6.0803665
  //            Monomer A HF           //
    Molecular point group: c1
  Multiplicity = 1
  Basis Set: AUG-CC-PVTZ
    Blend: AUG-CC-PVTZ
  Basis Set: (AUG-CC-PVTZ AUX)
    Blend: AUG-CC-PVTZ-JKFIT + DEF2-UNIVERSAL-JKFIT
  @DF-RHF Final Energy:  -698.68423267987316
    Total Energy =                       -698.6842326798730483
  //            Monomer B HF           //
    Molecular point group: c1

    Geometry (in Angstrom), charge = 1, multiplicity = 1:

       Center              X                  Y                   Z               Mass
    ------------   -----------------  -----------------  -----------------  -----------------
      Gh(F)           0.000000000000     0.000000000000     0.000000000000    18.998403162730
      Gh(K)           0.000000000000     2.175180000000     0.000000000000    38.963706486400
         K            2.827734000000     0.000000000000     0.000000000000    38.963706486400

  Charge       = 1
  Multiplicity = 1
  Basis Set: AUG-CC-PVTZ
    Blend: AUG-CC-PVTZ
  Basis Set: (AUG-CC-PVTZ AUX)
    Blend: AUG-CC-PVTZ-JKFIT + DEF2-UNIVERSAL-JKFIT

    Orbital Energies [Eh]
    ---------------------

    Doubly Occupied:

       1A   -133.753542     2A    -14.709040     3A    -11.739107
       4A    -11.739101     5A    -11.739101     6A     -1.964281
       7A     -1.170928     8A     -1.170880     9A     -1.170873

  @DF-RHF Final Energy:  -599.01750902546848

   => Energetics <=

    Nuclear Repulsion Energy =              0.0000000000000000
    One-Electron Energy =                -819.7213123019672594
    Two-Electron Energy =                 220.7038032764987463
    Total Energy =                       -599.0175090254684847
 Dipole X            :        -96.1858213          101.5292135            5.3433922
 Dipole Y            :          0.0000905            0.0000000            0.0000905
 Dipole Z            :         -0.0000000            0.0000000           -0.0000000
 Magnitude           :                                                    5.3433922

    SAPT Results
  --------------------------------------------------------------------------------------------------------
    Electrostatics                -36.53152115 [mEh]     -22.92387561 [kcal/mol]     -95.91349556 [kJ/mol]
      Elst10,r                    -35.70439084 [mEh]     -22.40484351 [kcal/mol]     -93.74186523 [kJ/mol]
      Elst12,r                     -0.82713031 [mEh]      -0.51903210 [kcal/mol]      -2.17163032 [kJ/mol]

    Exchange                        9.77659113 [mEh]       6.13490355 [kcal/mol]      25.66843647 [kJ/mol]
      Exch10                        7.25509396 [mEh]       4.55264019 [kcal/mol]      19.04824656 [kJ/mol]
      Exch10(S^2)                   7.22988943 [mEh]       4.53682411 [kcal/mol]      18.98207209 [kJ/mol]
      Exch11(S^2)                  -0.01645966 [mEh]      -0.01032859 [kcal/mol]      -0.04321483 [kJ/mol]
      Exch12(S^2)                   2.53795683 [mEh]       1.59259196 [kcal/mol]       6.66340474 [kJ/mol]

    Induction                      -9.32166650 [mEh]      -5.84943404 [kcal/mol]     -24.47403204 [kJ/mol]
      Ind20,r                     -16.35460969 [mEh]     -10.26267252 [kcal/mol]     -42.93902182 [kJ/mol]
      Ind22                        -6.05220703 [mEh]      -3.79781725 [kcal/mol]     -15.89006738 [kJ/mol]
      Exch-Ind20,r                  9.83015586 [mEh]       6.16851593 [kcal/mol]      25.80907066 [kJ/mol]
      Exch-Ind22                    3.63775960 [mEh]       2.28272861 [kcal/mol]       9.55093652 [kJ/mol]
      delta HF,r (2)               -0.38276525 [mEh]      -0.24018882 [kcal/mol]      -1.00495003 [kJ/mol]

    Dispersion                     -1.96092475 [mEh]      -1.23049886 [kcal/mol]      -5.14840723 [kJ/mol]
      Disp20                       -2.06810169 [mEh]      -1.29775341 [kcal/mol]      -5.42980025 [kJ/mol]
      Disp21                        0.25734916 [mEh]       0.16148903 [kcal/mol]       0.67567012 [kJ/mol]
      Disp22 (SDQ)                 -0.15907077 [mEh]      -0.09981842 [kcal/mol]      -0.41764026 [kJ/mol]
      Disp22 (T)                   -0.24680905 [mEh]      -0.15487502 [kcal/mol]      -0.64799707 [kJ/mol]
      Est. Disp22 (T)              -0.27363698 [mEh]      -0.17170980 [kcal/mol]      -0.71843379 [kJ/mol]
      Exch-Disp20                   0.28253554 [mEh]       0.17729373 [kcal/mol]       0.74179695 [kJ/mol]

  Total HF                        -35.35651596 [mEh]     -22.18654872 [kcal/mol]     -92.82851986 [kJ/mol]
  Total SAPT0                     -37.14208211 [mEh]     -23.30700840 [kcal/mol]     -97.51652316 [kJ/mol]
  Total SAPT2                     -37.86216268 [mEh]     -23.75886578 [kcal/mol]     -99.40709442 [kJ/mol]
  Total SAPT2+                    -38.03752127 [mEh]     -23.86890496 [kcal/mol]     -99.86749835 [kJ/mol]

  Special recipe for scaled SAPT0 (see Manual):
    Electrostatics sSAPT0         -35.70439084 [mEh]     -22.40484351 [kcal/mol]     -93.74186523 [kJ/mol]
    Exchange sSAPT0                 7.25509396 [mEh]       4.55264019 [kcal/mol]      19.04824656 [kJ/mol]
    Induction sSAPT0               -6.80405188 [mEh]      -4.26960701 [kcal/mol]     -17.86403574 [kJ/mol]
    Dispersion sSAPT0              -1.78260095 [mEh]      -1.11859899 [kcal/mol]      -4.68021816 [kJ/mol]
  Total sSAPT0                    -37.03594971 [mEh]     -23.24040932 [kcal/mol]     -97.23787258 [kJ/mol]
  --------------------------------------------------------------------------------------------------------

*** Psi4 exiting successfully. Buy a developer a beer!
