                               Psi4 1.9 release

  ==> Input File <==

--------------------------------------------------------------------------
MEMORY 60 GB

molecule dimer {
0 1
F      0.000000     0.000000     0.000000
K      0.000000     2.175180     0.000000
--
1 1
K      3.045252     0.000000     0.000000

units ang
no_reorient
no_com
symmetry c1
}

set {
basis        aug-cc-pVTZ
scf_type     df
}

energy("sapt2+")
--------------------------------------------------------------------------

  //              Dimer HF             //
    Molecular point group: c1
  Charge       = 1
  Multiplicity = 1
  Basis Set: AUG-CC-PVTZ
    Blend: AUG-CC-PVTZ
  Basis Set: (AUG-CC-PVTZ AUX)
    Blend: AUG-CC-PVTZ-JKFIT + DEF2-UNIVERSAL-JKFIT
  @DF-RHF Final Energy: -1297.73249624258779
    Total Energy =                      -1297.7324962425877857
 Dipole X            :       -103.9389262          109.3391530            5.4002268
 Dipole Y            :        -74.5780201           78.0993950            3.5213749
 Dipole Z            :         -0.0000000            0.0000000           -0.0000000
 Magnitude           :                                                    6.4469008
  //            Monomer A HF           //
    Molecular point group: c1
  Multiplicity = 1
  Basis Set: AUG-CC-PVTZ
    Blend: AUG-CC-PVTZ
  Basis Set: (AUG-CC-PVTZ AUX)
    Blend: AUG-CC-PVTZ-JKFIT + DEF2-UNIVERSAL-JKFIT
  @DF-RHF Final Energy:  -698.68421836389052
    Total Energy =                       -698.6842183638905226
  //            Monomer B HF           //
    Molecular point group: c1

    Geometry (in Angstrom), charge = 1, multiplicity = 1:

       Center              X                  Y                   Z               Mass
    ------------   -----------------  -----------------  -----------------  -----------------
      Gh(F)           0.000000000000     0.000000000000     0.000000000000    18.998403162730
      Gh(K)           0.000000000000     2.175180000000     0.000000000000    38.963706486400
         K            3.045252000000     0.000000000000     0.000000000000    38.963706486400

  Charge       = 1
  Multiplicity = 1
  Basis Set: AUG-CC-PVTZ
    Blend: AUG-CC-PVTZ
  Basis Set: (AUG-CC-PVTZ AUX)
    Blend: AUG-CC-PVTZ-JKFIT + DEF2-UNIVERSAL-JKFIT

    Orbital Energies [Eh]
    ---------------------

    Doubly Occupied:

       1A   -133.753551     2A    -14.709048     3A    -11.739113
       4A    -11.739107     5A    -11.739107     6A     -1.964292
       7A     -1.170927     8A     -1.170882     9A     -1.170876

  @DF-RHF Final Energy:  -599.01750867502460

   => Energetics <=

    Nuclear Repulsion Energy =              0.0000000000000000
    One-Electron Energy =                -819.7212141648187753
    Two-Electron Energy =                 220.7037054897941459
    Total Energy =                       -599.0175086750246010
 Dipole X            :       -103.5847496          109.3391530            5.7544034
 Dipole Y            :          0.0001012            0.0000000            0.0001012
 Dipole Z            :          0.0000000            0.0000000            0.0000000
 Magnitude           :                                                    5.7544034

    SAPT Results
  --------------------------------------------------------------------------------------------------------
    Electrostatics                -29.26652760 [mEh]     -18.36502334 [kcal/mol]     -76.83925764 [kJ/mol]
      Elst10,r                    -28.87670859 [mEh]     -18.12040821 [kcal/mol]     -75.81578795 [kJ/mol]
      Elst12,r                     -0.38981902 [mEh]      -0.24461513 [kcal/mol]      -1.02346968 [kJ/mol]

    Exchange                        4.81890568 [mEh]       3.02390897 [kcal/mol]      12.65203512 [kJ/mol]
      Exch10                        3.41449867 [mEh]       2.14263026 [kcal/mol]       8.96476502 [kJ/mol]
      Exch10(S^2)                   3.40850762 [mEh]       2.13887083 [kcal/mol]       8.94903554 [kJ/mol]
      Exch11(S^2)                   0.00078416 [mEh]       0.00049207 [kcal/mol]       0.00205880 [kJ/mol]
      Exch12(S^2)                   1.40362285 [mEh]       0.88078664 [kcal/mol]       3.68521129 [kJ/mol]

    Induction                      -7.15142158 [mEh]      -4.48758479 [kcal/mol]     -18.77605477 [kJ/mol]
      Ind20,r                      -9.78954820 [mEh]      -6.14303424 [kcal/mol]     -25.70245527 [kJ/mol]
      Ind22                        -3.55297658 [mEh]      -2.22952646 [kcal/mol]      -9.32833871 [kJ/mol]
      Exch-Ind20,r                  4.70757968 [mEh]       2.95405085 [kcal/mol]      12.35974875 [kJ/mol]
      Exch-Ind22                    1.70854875 [mEh]       1.07213053 [kcal/mol]       4.48579412 [kJ/mol]
      delta HF,r (2)               -0.22502523 [mEh]      -0.14120546 [kcal/mol]      -0.59080366 [kJ/mol]

    Dispersion                     -1.31153538 [mEh]      -0.82300088 [kcal/mol]      -3.44343568 [kJ/mol]
      Disp20                       -1.33313564 [mEh]      -0.83655524 [kcal/mol]      -3.50014714 [kJ/mol]
      Disp21                        0.17417786 [mEh]       0.10929826 [kcal/mol]       0.45730391 [kJ/mol]
      Disp22 (SDQ)                 -0.11021124 [mEh]      -0.06915860 [kcal/mol]      -0.28935957 [kJ/mol]
      Disp22 (T)                   -0.16327902 [mEh]      -0.10245913 [kcal/mol]      -0.42868902 [kJ/mol]
      Est. Disp22 (T)              -0.17886270 [mEh]      -0.11223804 [kcal/mol]      -0.46960396 [kJ/mol]
      Exch-Disp20                   0.13649634 [mEh]       0.08565274 [kcal/mol]       0.35837108 [kJ/mol]

  Total HF                        -30.76920367 [mEh]     -19.30796681 [kcal/mol]     -80.78453311 [kJ/mol]
  Total SAPT0                     -31.96584298 [mEh]     -20.05886931 [kcal/mol]     -83.92630918 [kJ/mol]
  Total SAPT2                     -32.79568281 [mEh]     -20.57960166 [kcal/mol]     -86.10505336 [kJ/mol]
  Total SAPT2+                    -32.91057889 [mEh]     -20.65170004 [kcal/mol]     -86.40671297 [kJ/mol]

  Special recipe for scaled SAPT0 (see Manual):
    Electrostatics sSAPT0         -28.87670859 [mEh]     -18.12040821 [kcal/mol]     -75.81578795 [kJ/mol]
    Exchange sSAPT0                 3.41449867 [mEh]       2.14263026 [kcal/mol]       8.96476502 [kJ/mol]
    Induction sSAPT0               -5.28212693 [mEh]      -3.31458469 [kcal/mol]     -13.86822234 [kJ/mol]
    Dispersion sSAPT0              -1.19591829 [mEh]      -0.75045006 [kcal/mol]      -3.13988304 [kJ/mol]
  Total sSAPT0                    -31.94025514 [mEh]     -20.04281270 [kcal/mol]     -83.85912832 [kJ/mol]
  --------------------------------------------------------------------------------------------------------

*** Psi4 exiting successfully. Buy a developer a beer!
