                               Psi4 1.9 release

  ==> Input File <==

--------------------------------------------------------------------------
MEMORY 60 GB

molecule dimer {
0 1
F      0.000000     0.000000     0.000000
K      0.000000     2.175180     0.000000
--
1 1
K      2.610216     0.000000     0.000000

units ang
no_reorient
no_com
symmetry c1
}

set {
basis        aug-cc-pVTZ
scf_type     df
}

energy("sapt2+")
--------------------------------------------------------------------------

  //              Dimer HF             //
    Molecular point group: c1
  Charge       = 1
  Multiplicity = 1
  Basis Set: AUG-CC-PVTZ
    Blend: AUG-CC-PVTZ
  Basis Set: (AUG-CC-PVTZ AUX)
    Blend: AUG-CC-PVTZ-JKFIT + DEF2-UNIVERSAL-JKFIT
  @DF-RHF Final Energy: -1297.74106118706345
    Total Energy =                      -1297.7410611870634511
 Dipole X            :        -89.2205507           93.7192740            4.4987233
 Dipole Y            :        -74.5645428           78.0993950            3.5348522
 Dipole Z            :          0.0000000            0.0000000            0.0000000
 Magnitude           :                                                    5.7213365
  //            Monomer A HF           //
    Molecular point group: c1
  Multiplicity = 1
  Basis Set: AUG-CC-PVTZ
    Blend: AUG-CC-PVTZ
  Basis Set: (AUG-CC-PVTZ AUX)
    Blend: AUG-CC-PVTZ-JKFIT + DEF2-UNIVERSAL-JKFIT
  @DF-RHF Final Energy:  -698.68425356904936
    Total Energy =                       -698.6842535690493605
  //            Monomer B HF           //
    Molecular point group: c1

    Geometry (in Angstrom), charge = 1, multiplicity = 1:

       Center              X                  Y                   Z               Mass
    ------------   -----------------  -----------------  -----------------  -----------------
      Gh(F)           0.000000000000     0.000000000000     0.000000000000    18.998403162730
      Gh(K)           0.000000000000     2.175180000000     0.000000000000    38.963706486400
         K            2.610216000000     0.000000000000     0.000000000000    38.963706486400

  Charge       = 1
  Multiplicity = 1
  Basis Set: AUG-CC-PVTZ
    Blend: AUG-CC-PVTZ
  Basis Set: (AUG-CC-PVTZ AUX)
    Blend: AUG-CC-PVTZ-JKFIT + DEF2-UNIVERSAL-JKFIT

    Orbital Energies [Eh]
    ---------------------

    Doubly Occupied:

       1A   -133.753518     2A    -14.709017     3A    -11.739087
       4A    -11.739081     5A    -11.739080     6A     -1.964265
       7A     -1.170924     8A     -1.170874     9A     -1.170863

  @DF-RHF Final Energy:  -599.01750940030865

   => Energetics <=

    Nuclear Repulsion Energy =              0.0000000000000000
    One-Electron Energy =                -819.7216003555705583
    Two-Electron Energy =                 220.7040909552619041
    Total Energy =                       -599.0175094003086542
 Dipole X            :        -88.7869688           93.7192740            4.9323051
 Dipole Y            :          0.0001115            0.0000000            0.0001115
 Dipole Z            :          0.0000000            0.0000000            0.0000000
 Magnitude           :                                                    4.9323052

    SAPT Results
  --------------------------------------------------------------------------------------------------------
    Electrostatics                -47.00972528 [mEh]     -29.49904797 [kcal/mol]    -123.42401673 [kJ/mol]
      Elst10,r                    -45.43776197 [mEh]     -28.51262610 [kcal/mol]    -119.29682762 [kJ/mol]
      Elst12,r                     -1.57196331 [mEh]      -0.98642187 [kcal/mol]      -4.12718911 [kJ/mol]

    Exchange                       19.86093304 [mEh]      12.46292364 [kcal/mol]      52.14487251 [kJ/mol]
      Exch10                       15.46944673 [mEh]       9.70722438 [kcal/mol]      40.61502679 [kJ/mol]
      Exch10(S^2)                  15.36397887 [mEh]       9.64104230 [kcal/mol]      40.33812098 [kJ/mol]
      Exch11(S^2)                  -0.07988885 [mEh]      -0.05013101 [kcal/mol]      -0.20974815 [kJ/mol]
      Exch12(S^2)                   4.47137516 [mEh]       2.80583027 [kcal/mol]      11.73959387 [kJ/mol]

    Induction                     -12.43601928 [mEh]      -7.80371991 [kcal/mol]     -32.65076412 [kJ/mol]
      Ind20,r                     -29.02098576 [mEh]     -18.21094350 [kcal/mol]     -76.19458762 [kJ/mol]
      Ind22                       -10.50721804 [mEh]      -6.59337886 [kcal/mol]     -27.58669715 [kJ/mol]
      Exch-Ind20,r                 20.44187647 [mEh]      12.82747115 [kcal/mol]      53.67013928 [kJ/mol]
      Exch-Ind22                    7.40110122 [mEh]       4.64426113 [kcal/mol]      19.43158858 [kJ/mol]
      delta HF,r (2)               -0.75079317 [mEh]      -0.47112983 [kcal/mol]      -1.97120720 [kJ/mol]

    Dispersion                     -3.01576542 [mEh]      -1.89242137 [kcal/mol]      -7.91789103 [kJ/mol]
      Disp20                       -3.32267030 [mEh]      -2.08500709 [kcal/mol]      -8.72366967 [kJ/mol]
      Disp21                        0.39332612 [mEh]       0.24681586 [kcal/mol]       1.03267758 [kJ/mol]
      Disp22 (SDQ)                 -0.23476854 [mEh]      -0.14731948 [kcal/mol]      -0.61638472 [kJ/mol]
      Disp22 (T)                   -0.39327813 [mEh]      -0.24678576 [kcal/mol]      -1.03255160 [kJ/mol]
      Est. Disp22 (T)              -0.43560203 [mEh]      -0.27334440 [kcal/mol]      -1.14367298 [kJ/mol]
      Exch-Disp20                   0.58394933 [mEh]       0.36643374 [kcal/mol]       1.53315876 [kJ/mol]

  Total HF                        -39.29821771 [mEh]     -24.66000391 [kcal/mol]    -103.17745637 [kJ/mol]
  Total SAPT0                     -42.03693867 [mEh]     -26.37857726 [kcal/mol]    -110.36796727 [kJ/mol]
  Total SAPT2                     -42.32353249 [mEh]     -26.55841760 [kcal/mol]    -111.12041924 [kJ/mol]
  Total SAPT2+                    -42.60057695 [mEh]     -26.73226562 [kcal/mol]    -111.84779936 [kJ/mol]

  Special recipe for scaled SAPT0 (see Manual):
    Electrostatics sSAPT0         -45.43776197 [mEh]     -28.51262610 [kcal/mol]    -119.29682762 [kJ/mol]
    Exchange sSAPT0                15.46944673 [mEh]       9.70722438 [kcal/mol]      40.61502679 [kJ/mol]
    Induction sSAPT0               -8.90602895 [mEh]      -5.58861754 [kcal/mol]     -23.38277579 [kJ/mol]
    Dispersion sSAPT0              -2.72661245 [mEh]      -1.71097515 [kcal/mol]      -7.15872001 [kJ/mol]
  Total sSAPT0                    -41.60095665 [mEh]     -26.10499441 [kcal/mol]    -109.22329663 [kJ/mol]
  --------------------------------------------------------------------------------------------------------

*** Psi4 exiting successfully. Buy a developer a beer!
