                               Psi4 1.9 release

  ==> Input File <==

--------------------------------------------------------------------------
MEMORY 60 GB

molecule dimer {
0 1
F      0.000000     0.000000     0.000000
K      0.000000     2.175180     0.000000
--
1 1
K      4.350360     0.000000     0.000000

units ang
no_reorient
no_com
symmetry c1
}

set {
basis        aug-cc-pVTZ
scf_type     df
}

energy("sapt2+")
--------------------------------------------------------------------------

  //              Dimer HF             //
    Molecular point group: c1
  Charge       = 1
  Multiplicity = 1
  Basis Set: AUG-CC-PVTZ
    Blend: AUG-CC-PVTZ
  Basis Set: (AUG-CC-PVTZ AUX)
    Blend: AUG-CC-PVTZ-JKFIT + DEF2-UNIVERSAL-JKFIT
  @DF-RHF Final Energy: -1297.71392002482594
    Total Energy =                      -1297.7139200248257112
 Dipole X            :       -148.1655773          156.1987900            8.0332127
 Dipole Y            :        -74.5976821           78.0993950            3.5017129
 Dipole Z            :         -0.0000000            0.0000000           -0.0000000
 Magnitude           :                                                    8.7632471
  //            Monomer A HF           //
    Molecular point group: c1
  Multiplicity = 1
  Basis Set: AUG-CC-PVTZ
    Blend: AUG-CC-PVTZ
  Basis Set: (AUG-CC-PVTZ AUX)
    Blend: AUG-CC-PVTZ-JKFIT + DEF2-UNIVERSAL-JKFIT
  @DF-RHF Final Energy:  -698.68418123258891
    Total Energy =                       -698.6841812325890260
  //            Monomer B HF           //
    Molecular point group: c1

    Geometry (in Angstrom), charge = 1, multiplicity = 1:

       Center              X                  Y                   Z               Mass
    ------------   -----------------  -----------------  -----------------  -----------------
      Gh(F)           0.000000000000     0.000000000000     0.000000000000    18.998403162730
      Gh(K)           0.000000000000     2.175180000000     0.000000000000    38.963706486400
         K            4.350360000000     0.000000000000     0.000000000000    38.963706486400

  Charge       = 1
  Multiplicity = 1
  Basis Set: AUG-CC-PVTZ
    Blend: AUG-CC-PVTZ
  Basis Set: (AUG-CC-PVTZ AUX)
    Blend: AUG-CC-PVTZ-JKFIT + DEF2-UNIVERSAL-JKFIT

    Orbital Energies [Eh]
    ---------------------

    Doubly Occupied:

       1A   -133.753803     2A    -14.709247     3A    -11.739312
       4A    -11.739308     5A    -11.739308     6A     -1.964385
       7A     -1.170983     8A     -1.170957     9A     -1.170956

  @DF-RHF Final Energy:  -599.01750704551387

   => Energetics <=

    Nuclear Repulsion Energy =              0.0000000000000000
    One-Electron Energy =                -819.7185010646915089
    Two-Electron Energy =                 220.7009940191776423
    Total Energy =                       -599.0175070455138666
 Dipole X            :       -147.9779679          156.1987900            8.2208221
 Dipole Y            :          0.0000647            0.0000000            0.0000647
 Dipole Z            :         -0.0000000            0.0000000           -0.0000000
 Magnitude           :                                                    8.2208221

    SAPT Results
  --------------------------------------------------------------------------------------------------------
    Electrostatics                -10.82250954 [mEh]      -6.79122727 [kcal/mol]     -28.41449489 [kJ/mol]
      Elst10,r                    -10.89232146 [mEh]      -6.83503491 [kcal/mol]     -28.59778605 [kJ/mol]
      Elst12,r                      0.06981192 [mEh]       0.04380764 [kcal/mol]       0.18329116 [kJ/mol]

    Exchange                        0.06456154 [mEh]       0.04051298 [kcal/mol]       0.16950630 [kJ/mol]
      Exch10                        0.04082905 [mEh]       0.02562062 [kcal/mol]       0.10719666 [kJ/mol]
      Exch10(S^2)                   0.04082790 [mEh]       0.02561989 [kcal/mol]       0.10719364 [kJ/mol]
      Exch11(S^2)                   0.00032000 [mEh]       0.00020080 [kcal/mol]       0.00084016 [kJ/mol]
      Exch12(S^2)                   0.02341249 [mEh]       0.01469156 [kcal/mol]       0.06146948 [kJ/mol]

    Induction                      -1.69356879 [mEh]      -1.06273046 [kcal/mol]      -4.44646426 [kJ/mol]
      Ind20,r                      -1.38160534 [mEh]      -0.86697044 [kcal/mol]      -3.62740433 [kJ/mol]
      Ind22                        -0.32795818 [mEh]      -0.20579687 [kcal/mol]      -0.86105409 [kJ/mol]
      Exch-Ind20,r                  0.06169023 [mEh]       0.03871121 [kcal/mol]       0.16196769 [kJ/mol]
      Exch-Ind22                    0.01464370 [mEh]       0.00918906 [kcal/mol]       0.03844703 [kJ/mol]
      delta HF,r (2)               -0.06033921 [mEh]      -0.03786342 [kcal/mol]      -0.15842056 [kJ/mol]

    Dispersion                     -0.16225509 [mEh]      -0.10181661 [kcal/mol]      -0.42600069 [kJ/mol]
      Disp20                       -0.15674240 [mEh]      -0.09835734 [kcal/mol]      -0.41152710 [kJ/mol]
      Disp21                        0.02672471 [mEh]       0.01677001 [kcal/mol]       0.07016571 [kJ/mol]
      Disp22 (SDQ)                 -0.01360230 [mEh]      -0.00853557 [kcal/mol]      -0.03571283 [kJ/mol]
      Disp22 (T)                   -0.01994900 [mEh]      -0.01251819 [kcal/mol]      -0.05237609 [kJ/mol]
      Est. Disp22 (T)              -0.02062663 [mEh]      -0.01294340 [kcal/mol]      -0.05415520 [kJ/mol]
      Exch-Disp20                   0.00199152 [mEh]       0.00124970 [kcal/mol]       0.00522873 [kJ/mol]

  Total HF                        -12.23174672 [mEh]      -7.67553695 [kcal/mol]     -32.11444660 [kJ/mol]
  Total SAPT0                     -12.38649760 [mEh]      -7.77264459 [kcal/mol]     -32.52074497 [kJ/mol]
  Total SAPT2                     -12.60626767 [mEh]      -7.91055239 [kcal/mol]     -33.09775122 [kJ/mol]
  Total SAPT2+                    -12.61377189 [mEh]      -7.91526136 [kcal/mol]     -33.11745354 [kJ/mol]

  Special recipe for scaled SAPT0 (see Manual):
    Electrostatics sSAPT0         -10.89232146 [mEh]      -6.83503491 [kcal/mol]     -28.59778605 [kJ/mol]
    Exchange sSAPT0                 0.04082905 [mEh]       0.02562062 [kcal/mol]       0.10719666 [kJ/mol]
    Induction sSAPT0               -1.38024910 [mEh]      -0.86611939 [kcal/mol]      -3.62384353 [kJ/mol]
    Dispersion sSAPT0              -0.15475071 [mEh]      -0.09710754 [kcal/mol]      -0.40629793 [kJ/mol]
  Total sSAPT0                    -12.38649222 [mEh]      -7.77264122 [kcal/mol]     -32.52073084 [kJ/mol]
  --------------------------------------------------------------------------------------------------------

*** Psi4 exiting successfully. Buy a developer a beer!
