                               Psi4 1.9 release

  ==> Input File <==

--------------------------------------------------------------------------
MEMORY 60 GB

molecule dimer {
0 1
F      0.000000     0.000000     0.000000
K      0.000000     2.175180     0.000000
--
1 1
K      2.392698     0.000000     0.000000

units ang
no_reorient
no_com
symmetry c1
}

set {
basis        aug-cc-pVTZ
scf_type     df
}

energy("sapt2+")
--------------------------------------------------------------------------

  //              Dimer HF             //
    Molecular point group: c1
  Charge       = 1
  Multiplicity = 1
  Basis Set: AUG-CC-PVTZ
    Blend: AUG-CC-PVTZ
  Basis Set: (AUG-CC-PVTZ AUX)
    Blend: AUG-CC-PVTZ-JKFIT + DEF2-UNIVERSAL-JKFIT
  @DF-RHF Final Energy: -1297.74216770250223
    Total Energy =                      -1297.7421677025022291
 Dipole X            :        -81.8726578           85.9093345            4.0366767
 Dipole Y            :        -74.5548098           78.0993950            3.5445852
 Dipole Z            :          0.0000000            0.0000000            0.0000000
 Magnitude           :                                                    5.3720427
  //            Monomer A HF           //
    Molecular point group: c1
  Multiplicity = 1
  Basis Set: AUG-CC-PVTZ
    Blend: AUG-CC-PVTZ
  Basis Set: (AUG-CC-PVTZ AUX)
    Blend: AUG-CC-PVTZ-JKFIT + DEF2-UNIVERSAL-JKFIT
  @DF-RHF Final Energy:  -698.68427483526955
    Total Energy =                       -698.6842748352696617
  //            Monomer B HF           //
    Molecular point group: c1

    Geometry (in Angstrom), charge = 1, multiplicity = 1:

       Center              X                  Y                   Z               Mass
    ------------   -----------------  -----------------  -----------------  -----------------
      Gh(F)           0.000000000000     0.000000000000     0.000000000000    18.998403162730
      Gh(K)           0.000000000000     2.175180000000     0.000000000000    38.963706486400
         K            2.392698000000     0.000000000000     0.000000000000    38.963706486400

  Charge       = 1
  Multiplicity = 1
  Basis Set: AUG-CC-PVTZ
    Blend: AUG-CC-PVTZ
  Basis Set: (AUG-CC-PVTZ AUX)
    Blend: AUG-CC-PVTZ-JKFIT + DEF2-UNIVERSAL-JKFIT

    Orbital Energies [Eh]
    ---------------------

    Doubly Occupied:

       1A   -133.753455     2A    -14.708965     3A    -11.739036
       4A    -11.739030     5A    -11.739029     6A     -1.964242
       7A     -1.170910     8A     -1.170858     9A     -1.170842

  @DF-RHF Final Energy:  -599.01750975084917

   => Energetics <=

    Nuclear Repulsion Energy =              0.0000000000000000
    One-Electron Energy =                -819.7222881633382485
    Two-Electron Energy =                 220.7047784124891052
    Total Energy =                       -599.0175097508491717
 Dipole X            :        -81.3881416           85.9093345            4.5211929
 Dipole Y            :          0.0001455            0.0000000            0.0001455
 Dipole Z            :          0.0000000            0.0000000            0.0000000
 Magnitude           :                                                    4.5211929

    SAPT Results
  --------------------------------------------------------------------------------------------------------
    Electrostatics                -63.09895499 [mEh]     -39.59519204 [kcal/mol]    -165.66628350 [kJ/mol]
      Elst10,r                    -60.30496975 [mEh]     -37.84193984 [kcal/mol]    -158.33067627 [kJ/mol]
      Elst12,r                     -2.79398524 [mEh]      -1.75325221 [kcal/mol]      -7.33560723 [kJ/mol]

    Exchange                       40.54683855 [mEh]      25.44352532 [kcal/mol]     106.45570995 [kJ/mol]
      Exch10                       33.18266554 [mEh]      20.82243699 [kcal/mol]      87.12107637 [kJ/mol]
      Exch10(S^2)                  32.74274494 [mEh]      20.54638265 [kcal/mol]      85.96606500 [kJ/mol]
      Exch11(S^2)                  -0.27873688 [mEh]      -0.17491004 [kcal/mol]      -0.73182359 [kJ/mol]
      Exch12(S^2)                   7.64290990 [mEh]       4.79599837 [kcal/mol]      20.06645717 [kJ/mol]

    Induction                     -17.26381713 [mEh]     -10.83320880 [kcal/mol]     -45.32614563 [kJ/mol]
      Ind20,r                     -54.18171209 [mEh]     -33.99953764 [kcal/mol]    -142.25406550 [kJ/mol]
      Ind22                       -18.35436605 [mEh]     -11.51753858 [kcal/mol]     -48.18938141 [kJ/mol]
      Exch-Ind20,r                 42.36492357 [mEh]      26.58439089 [kcal/mol]     111.22909150 [kJ/mol]
      Exch-Ind22                   14.35136109 [mEh]       9.00561504 [kcal/mol]      37.67949335 [kJ/mol]
      delta HF,r (2)               -1.44402364 [mEh]      -0.90613852 [kcal/mol]      -3.79128356 [kJ/mol]

    Dispersion                     -4.71097659 [mEh]      -2.95618244 [kcal/mol]     -12.36866732 [kJ/mol]
      Disp20                       -5.49550428 [mEh]      -3.44848100 [kcal/mol]     -14.42844449 [kJ/mol]
      Disp21                        0.63988025 [mEh]       0.40153092 [kcal/mol]       1.68000536 [kJ/mol]
      Disp22 (SDQ)                 -0.35372317 [mEh]      -0.22196464 [kcal/mol]      -0.92870006 [kJ/mol]
      Disp22 (T)                   -0.63893382 [mEh]      -0.40093703 [kcal/mol]      -1.67752052 [kJ/mol]
      Est. Disp22 (T)              -0.69937570 [mEh]      -0.43886487 [kcal/mol]      -1.83621064 [kJ/mol]
      Exch-Disp20                   1.19774631 [mEh]       0.75159716 [kcal/mol]       3.14468251 [kJ/mol]

  Total HF                        -40.38311638 [mEh]     -25.34078811 [kcal/mol]    -106.02585746 [kJ/mol]
  Total SAPT0                     -44.68087435 [mEh]     -28.03767195 [kcal/mol]    -117.30961944 [kJ/mol]
  Total SAPT2                     -44.11369153 [mEh]     -27.68175936 [kcal/mol]    -115.82048116 [kJ/mol]
  Total SAPT2+                    -44.52691015 [mEh]     -27.94105796 [kcal/mol]    -116.90538650 [kJ/mol]

  Special recipe for scaled SAPT0 (see Manual):
    Electrostatics sSAPT0         -60.30496975 [mEh]     -37.84193984 [kcal/mol]    -158.33067627 [kJ/mol]
    Exchange sSAPT0                33.18266554 [mEh]      20.82243699 [kcal/mol]      87.12107637 [kJ/mol]
    Induction sSAPT0              -11.53016369 [mEh]      -7.23528695 [kcal/mol]     -30.27244059 [kJ/mol]
    Dispersion sSAPT0              -4.24882886 [mEh]      -2.66618036 [kcal/mol]     -11.15529863 [kJ/mol]
  Total sSAPT0                    -42.90129676 [mEh]     -26.92097015 [kcal/mol]    -112.63733913 [kJ/mol]
  --------------------------------------------------------------------------------------------------------

*** Psi4 exiting successfully. Buy a developer a beer!
