                               Psi4 1.9 release

  ==> Input File <==

--------------------------------------------------------------------------
MEMORY 60 GB

molecule dimer {
0 1
K      0.000000     0.000000     0.000000
F      0.000000     2.175180     0.000000
--
-1 1
F      4.350360     0.000000     0.000000

units ang
no_reorient
no_com
symmetry c1
}

set {
basis        aug-cc-pVTZ
scf_type     df
}

energy("sapt2+")
--------------------------------------------------------------------------

  //              Dimer HF             //
    Molecular point group: c1
  Charge       = -1
  Multiplicity = 1
  Basis Set: AUG-CC-PVTZ
    Blend: AUG-CC-PVTZ
  Basis Set: (AUG-CC-PVTZ AUX)
    Blend: AUG-CC-PVTZ-JKFIT + DEF2-UNIVERSAL-JKFIT
  @DF-RHF Final Energy:  -798.14763043636560
    Total Energy =                       -798.1476304363656027
 Dipole X            :        -82.0213774           73.9889005           -8.0324769
 Dipole Y            :        -40.4836809           36.9944503           -3.4892306
 Dipole Z            :         -0.0000000            0.0000000           -0.0000000
 Magnitude           :                                                    8.7575918
  //            Monomer A HF           //
    Molecular point group: c1
  Multiplicity = 1
  Basis Set: AUG-CC-PVTZ
    Blend: AUG-CC-PVTZ
  Basis Set: (AUG-CC-PVTZ AUX)
    Blend: AUG-CC-PVTZ-JKFIT + DEF2-UNIVERSAL-JKFIT
  @DF-RHF Final Energy:  -698.68413958890369
    Total Energy =                       -698.6841395889036903
  //            Monomer B HF           //
    Molecular point group: c1

    Geometry (in Angstrom), charge = -1, multiplicity = 1:

       Center              X                  Y                   Z               Mass
    ------------   -----------------  -----------------  -----------------  -----------------
      Gh(K)           0.000000000000     0.000000000000     0.000000000000    38.963706486400
      Gh(F)           0.000000000000     2.175180000000     0.000000000000    18.998403162730
         F            4.350360000000     0.000000000000     0.000000000000    18.998403162730

  Charge       = -1
  Multiplicity = 1
  Basis Set: AUG-CC-PVTZ
    Blend: AUG-CC-PVTZ
  Basis Set: (AUG-CC-PVTZ AUX)
    Blend: AUG-CC-PVTZ-JKFIT + DEF2-UNIVERSAL-JKFIT

    Orbital Energies [Eh]
    ---------------------

    Doubly Occupied:

       1A    -25.833861     2A     -1.076121     3A     -0.181042
       4A     -0.181039     5A     -0.181039

  @DF-RHF Final Energy:   -99.45081975462122

   => Energetics <=

    Nuclear Repulsion Energy =              0.0000000000000000
    One-Electron Energy =                -143.9954339444072104
    Two-Electron Energy =                  44.5446141897859746
    Total Energy =                        -99.4508197546212358
 Dipole X            :        -82.2103493           73.9889005           -8.2214488
 Dipole Y            :          0.0000705            0.0000000            0.0000705
 Dipole Z            :         -0.0000000            0.0000000           -0.0000000
 Magnitude           :                                                    8.2214488

    SAPT Results
  --------------------------------------------------------------------------------------------------------
    Electrostatics                -11.36711835 [mEh]      -7.13297445 [kcal/mol]     -29.84436511 [kJ/mol]
      Elst10,r                    -11.46046466 [mEh]      -7.19155015 [kcal/mol]     -30.08944582 [kJ/mol]
      Elst12,r                      0.09334631 [mEh]       0.05857569 [kcal/mol]       0.24508070 [kJ/mol]

    Exchange                        0.19676174 [mEh]       0.12346986 [kcal/mol]       0.51659788 [kJ/mol]
      Exch10                        0.09531193 [mEh]       0.05980914 [kcal/mol]       0.25024143 [kJ/mol]
      Exch10(S^2)                   0.09530487 [mEh]       0.05980471 [kcal/mol]       0.25022289 [kJ/mol]
      Exch11(S^2)                  -0.00034541 [mEh]      -0.00021675 [kcal/mol]      -0.00090689 [kJ/mol]
      Exch12(S^2)                   0.10179523 [mEh]       0.06387747 [kcal/mol]       0.26726333 [kJ/mol]

    Induction                      -1.70219926 [mEh]      -1.06814616 [kcal/mol]      -4.46912354 [kJ/mol]
      Ind20,r                      -1.49530029 [mEh]      -0.93831510 [kcal/mol]      -3.92591038 [kJ/mol]
      Ind22                        -0.45256727 [mEh]      -0.28399025 [kcal/mol]      -1.18821521 [kJ/mol]
      Exch-Ind20,r                  0.18604429 [mEh]       0.11674455 [kcal/mol]       0.48845921 [kJ/mol]
      Exch-Ind22                    0.05630813 [mEh]       0.03533388 [kcal/mol]       0.14783696 [kJ/mol]
      delta HF,r (2)                0.00331590 [mEh]       0.00208076 [kcal/mol]       0.00870589 [kJ/mol]

    Dispersion                     -0.26384955 [mEh]      -0.16556809 [kcal/mol]      -0.69273691 [kJ/mol]
      Disp20                       -0.19731867 [mEh]      -0.12381934 [kcal/mol]      -0.51806010 [kJ/mol]
      Disp21                        0.01070916 [mEh]       0.00672010 [kcal/mol]       0.02811688 [kJ/mol]
      Disp22 (SDQ)                 -0.04308423 [mEh]      -0.02703576 [kcal/mol]      -0.11311764 [kJ/mol]
      Disp22 (T)                   -0.04033099 [mEh]      -0.02530808 [kcal/mol]      -0.10588899 [kJ/mol]
      Est. Disp22 (T)              -0.04438423 [mEh]      -0.02785153 [kcal/mol]      -0.11653078 [kJ/mol]
      Exch-Disp20                   0.01022843 [mEh]       0.00641843 [kcal/mol]       0.02685473 [kJ/mol]

  Total HF                        -12.67109284 [mEh]      -7.95123080 [kcal/mol]     -33.26794967 [kJ/mol]
  Total SAPT0                     -12.85818309 [mEh]      -8.06863170 [kcal/mol]     -33.75915504 [kJ/mol]
  Total SAPT2                     -13.05964611 [mEh]      -8.19505166 [kcal/mol]     -34.28809615 [kJ/mol]
  Total SAPT2+                    -13.13640542 [mEh]      -8.24321885 [kcal/mol]     -34.48962768 [kJ/mol]

  Special recipe for scaled SAPT0 (see Manual):
    Electrostatics sSAPT0         -11.46046466 [mEh]      -7.19155015 [kcal/mol]     -30.08944582 [kJ/mol]
    Exchange sSAPT0                 0.09531193 [mEh]       0.05980914 [kcal/mol]       0.25024143 [kJ/mol]
    Induction sSAPT0               -1.30589875 [mEh]      -0.81946384 [kcal/mol]      -3.42863670 [kJ/mol]
    Dispersion sSAPT0              -0.18708797 [mEh]      -0.11739947 [kcal/mol]      -0.49119940 [kJ/mol]
  Total sSAPT0                    -12.85813945 [mEh]      -8.06860432 [kcal/mol]     -33.75904049 [kJ/mol]
  --------------------------------------------------------------------------------------------------------

*** Psi4 exiting successfully. Buy a developer a beer!
