                               Psi4 1.9 release

  ==> Input File <==

--------------------------------------------------------------------------
MEMORY 60 GB

molecule dimer {
0 1
K      0.000000     0.000000     0.000000
F      0.000000     2.175180     0.000000
--
-1 1
F      2.610216     0.000000     0.000000

units ang
no_reorient
no_com
symmetry c1
}

set {
basis        aug-cc-pVTZ
scf_type     df
}

energy("sapt2+")
--------------------------------------------------------------------------

  //              Dimer HF             //
    Molecular point group: c1
  Charge       = -1
  Multiplicity = 1
  Basis Set: AUG-CC-PVTZ
    Blend: AUG-CC-PVTZ
  Basis Set: (AUG-CC-PVTZ AUX)
    Blend: AUG-CC-PVTZ-JKFIT + DEF2-UNIVERSAL-JKFIT
  @DF-RHF Final Energy:  -798.17624535333982
    Total Energy =                       -798.1762453533397093
 Dipole X            :        -48.8753767           44.3933403           -4.4820364
 Dipole Y            :        -40.5018084           36.9944503           -3.5073582
 Dipole Z            :         -0.0000000            0.0000000           -0.0000000
 Magnitude           :                                                    5.6912399
  //            Monomer A HF           //
    Molecular point group: c1
  Multiplicity = 1
  Basis Set: AUG-CC-PVTZ
    Blend: AUG-CC-PVTZ
  Basis Set: (AUG-CC-PVTZ AUX)
    Blend: AUG-CC-PVTZ-JKFIT + DEF2-UNIVERSAL-JKFIT
  @DF-RHF Final Energy:  -698.68419350298745
    Total Energy =                       -698.6841935029875685
  //            Monomer B HF           //
    Molecular point group: c1

    Geometry (in Angstrom), charge = -1, multiplicity = 1:

       Center              X                  Y                   Z               Mass
    ------------   -----------------  -----------------  -----------------  -----------------
      Gh(K)           0.000000000000     0.000000000000     0.000000000000    38.963706486400
      Gh(F)           0.000000000000     2.175180000000     0.000000000000    18.998403162730
         F            2.610216000000     0.000000000000     0.000000000000    18.998403162730

  Charge       = -1
  Multiplicity = 1
  Basis Set: AUG-CC-PVTZ
    Blend: AUG-CC-PVTZ
  Basis Set: (AUG-CC-PVTZ AUX)
    Blend: AUG-CC-PVTZ-JKFIT + DEF2-UNIVERSAL-JKFIT

    Orbital Energies [Eh]
    ---------------------

    Doubly Occupied:

       1A    -25.833898     2A     -1.076112     3A     -0.181048
       4A     -0.181035     5A     -0.181033

  @DF-RHF Final Energy:   -99.45083682319684

   => Energetics <=

    Nuclear Repulsion Energy =              0.0000000000000000
    One-Electron Energy =                -143.9954229461888531
    Two-Electron Energy =                  44.5445861229920155
    Total Energy =                        -99.4508368231968376
 Dipole X            :        -49.3256572           44.3933403           -4.9323169
 Dipole Y            :         -0.0000036            0.0000000           -0.0000036
 Dipole Z            :          0.0000000            0.0000000            0.0000000
 Magnitude           :                                                    4.9323169

    SAPT Results
  --------------------------------------------------------------------------------------------------------
    Electrostatics                -51.54464764 [mEh]     -32.34475471 [kcal/mol]    -135.33045372 [kJ/mol]
      Elst10,r                    -48.81410255 [mEh]     -30.63131181 [kcal/mol]    -128.16140859 [kJ/mol]
      Elst12,r                     -2.73054508 [mEh]      -1.71344291 [kcal/mol]      -7.16904513 [kJ/mol]

    Exchange                       23.79901408 [mEh]      14.93410680 [kcal/mol]      62.48430286 [kJ/mol]
      Exch10                       17.45456574 [mEh]      10.95290536 [kcal/mol]      45.82695604 [kJ/mol]
      Exch10(S^2)                  17.32379260 [mEh]      10.87084398 [kcal/mol]      45.48361119 [kJ/mol]
      Exch11(S^2)                  -0.15584449 [mEh]      -0.09779389 [kcal/mol]      -0.40916965 [kJ/mol]
      Exch12(S^2)                   6.50029283 [mEh]       4.07899533 [kcal/mol]      17.06651646 [kJ/mol]

    Induction                     -13.66215629 [mEh]      -8.57313250 [kcal/mol]     -35.86998639 [kJ/mol]
      Ind20,r                     -36.33356088 [mEh]     -22.79965367 [kcal/mol]     -95.39375096 [kJ/mol]
      Ind22                       -15.88932698 [mEh]      -9.97070321 [kcal/mol]     -41.71742224 [kJ/mol]
      Exch-Ind20,r                 27.62899278 [mEh]      17.33745472 [kcal/mol]      72.53991056 [kJ/mol]
      Exch-Ind22                   12.08266104 [mEh]       7.58198427 [kcal/mol]      31.72302219 [kJ/mol]
      delta HF,r (2)               -1.15092224 [mEh]      -0.72221461 [kcal/mol]      -3.02174594 [kJ/mol]

    Dispersion                     -3.90315898 [mEh]      -2.44926924 [kcal/mol]     -10.24774250 [kJ/mol]
      Disp20                       -3.92908111 [mEh]      -2.46553562 [kcal/mol]     -10.31580102 [kJ/mol]
      Disp21                        0.29890626 [mEh]       0.18756651 [kcal/mol]       0.78477826 [kJ/mol]
      Disp22 (SDQ)                 -0.55155237 [mEh]      -0.34610434 [kcal/mol]      -1.44810055 [kJ/mol]
      Disp22 (T)                   -0.61979038 [mEh]      -0.38892433 [kcal/mol]      -1.62725941 [kJ/mol]
      Est. Disp22 (T)              -0.71201541 [mEh]      -0.44679641 [kcal/mol]      -1.86939619 [kJ/mol]
      Exch-Disp20                   0.99058364 [mEh]       0.62160062 [kcal/mol]       2.60077700 [kJ/mol]

  Total HF                        -41.21502716 [mEh]     -25.86282000 [kcal/mol]    -108.21003889 [kJ/mol]
  Total SAPT0                     -44.15352462 [mEh]     -27.70675500 [kcal/mol]    -115.92506291 [kJ/mol]
  Total SAPT2                     -44.34628731 [mEh]     -27.82771541 [kcal/mol]    -116.43116129 [kJ/mol]
  Total SAPT2+                    -45.31094883 [mEh]     -28.43304966 [kcal/mol]    -118.96387977 [kJ/mol]

  Special recipe for scaled SAPT0 (see Manual):
    Electrostatics sSAPT0         -48.81410255 [mEh]     -30.63131181 [kcal/mol]    -128.16140859 [kJ/mol]
    Exchange sSAPT0                17.45456574 [mEh]      10.95290536 [kcal/mol]      45.82695604 [kJ/mol]
    Induction sSAPT0               -9.22506137 [mEh]      -5.78881341 [kcal/mol]     -24.22039529 [kJ/mol]
    Dispersion sSAPT0              -2.91589466 [mEh]      -1.82975152 [kcal/mol]      -7.65568038 [kJ/mol]
  Total sSAPT0                    -43.50049284 [mEh]     -27.29697137 [kcal/mol]    -114.21052822 [kJ/mol]
  --------------------------------------------------------------------------------------------------------

*** Psi4 exiting successfully. Buy a developer a beer!
