                               Psi4 1.9 release

  ==> Input File <==

--------------------------------------------------------------------------
MEMORY 60 GB

molecule dimer {
0 1
K      0.000000     0.000000     0.000000
F      0.000000     2.175180     0.000000
--
-1 1
F      2.392698     0.000000     0.000000

units ang
no_reorient
no_com
symmetry c1
}

set {
basis        aug-cc-pVTZ
scf_type     df
}

energy("sapt2+")
--------------------------------------------------------------------------

  //              Dimer HF             //
    Molecular point group: c1
  Charge       = -1
  Multiplicity = 1
  Basis Set: AUG-CC-PVTZ
    Blend: AUG-CC-PVTZ
  Basis Set: (AUG-CC-PVTZ AUX)
    Blend: AUG-CC-PVTZ-JKFIT + DEF2-UNIVERSAL-JKFIT
  @DF-RHF Final Energy:  -798.17840668702343
    Total Energy =                       -798.1784066870234255
 Dipole X            :        -44.7081604           40.6938953           -4.0142651
 Dipole Y            :        -40.5110654           36.9944503           -3.5166151
 Dipole Z            :          0.0000000            0.0000000            0.0000000
 Magnitude           :                                                    5.3367505
  //            Monomer A HF           //
    Molecular point group: c1
  Multiplicity = 1
  Basis Set: AUG-CC-PVTZ
    Blend: AUG-CC-PVTZ
  Basis Set: (AUG-CC-PVTZ AUX)
    Blend: AUG-CC-PVTZ-JKFIT + DEF2-UNIVERSAL-JKFIT
  @DF-RHF Final Energy:  -698.68423056753102
    Total Energy =                       -698.6842305675311309
  //            Monomer B HF           //
    Molecular point group: c1

    Geometry (in Angstrom), charge = -1, multiplicity = 1:

       Center              X                  Y                   Z               Mass
    ------------   -----------------  -----------------  -----------------  -----------------
      Gh(K)           0.000000000000     0.000000000000     0.000000000000    38.963706486400
      Gh(F)           0.000000000000     2.175180000000     0.000000000000    18.998403162730
         F            2.392698000000     0.000000000000     0.000000000000    18.998403162730

  Charge       = -1
  Multiplicity = 1
  Basis Set: AUG-CC-PVTZ
    Blend: AUG-CC-PVTZ
  Basis Set: (AUG-CC-PVTZ AUX)
    Blend: AUG-CC-PVTZ-JKFIT + DEF2-UNIVERSAL-JKFIT

    Orbital Energies [Eh]
    ---------------------

    Doubly Occupied:

       1A    -25.833896     2A     -1.076110     3A     -0.181052
       4A     -0.181032     5A     -0.181029

  @DF-RHF Final Energy:   -99.45084373647995

   => Energetics <=

    Nuclear Repulsion Energy =              0.0000000000000000
    One-Electron Energy =                -143.9954495284509051
    Two-Electron Energy =                  44.5446057919709588
    Total Energy =                        -99.4508437364799533
 Dipole X            :        -45.2151489           40.6938953           -4.5212536
 Dipole Y            :         -0.0000084            0.0000000           -0.0000084
 Dipole Z            :         -0.0000000            0.0000000           -0.0000000
 Magnitude           :                                                    4.5212536

    SAPT Results
  --------------------------------------------------------------------------------------------------------
    Electrostatics                -69.46608634 [mEh]     -43.59062729 [kcal/mol]    -182.38318456 [kJ/mol]
      Elst10,r                    -65.04458335 [mEh]     -40.81609227 [kcal/mol]    -170.77453005 [kJ/mol]
      Elst12,r                     -4.42150299 [mEh]      -2.77453502 [kcal/mol]     -11.60865451 [kJ/mol]

    Exchange                       45.90333377 [mEh]      28.80477682 [kcal/mol]     120.51918622 [kJ/mol]
      Exch10                       35.83288705 [mEh]      22.48547610 [kcal/mol]      94.07923199 [kJ/mol]
      Exch10(S^2)                  35.33345240 [mEh]      22.17207612 [kcal/mol]      92.76796650 [kJ/mol]
      Exch11(S^2)                  -0.43112180 [mEh]      -0.27053302 [kcal/mol]      -1.13191014 [kJ/mol]
      Exch12(S^2)                  10.50156853 [mEh]       6.58983374 [kcal/mol]      27.57186437 [kJ/mol]

    Induction                     -19.00318654 [mEh]     -11.92467958 [kcal/mol]     -49.89285938 [kJ/mol]
      Ind20,r                     -65.69119620 [mEh]     -41.22184796 [kcal/mol]    -172.47221187 [kJ/mol]
      Ind22                       -26.17040964 [mEh]     -16.42217998 [kcal/mol]     -68.71040105 [kJ/mol]
      Exch-Ind20,r                 53.43547464 [mEh]      33.53126657 [kcal/mol]     140.29481934 [kJ/mol]
      Exch-Ind22                   21.28790982 [mEh]      13.35836509 [kcal/mol]      55.89139953 [kJ/mol]
      delta HF,r (2)               -1.86496515 [mEh]      -1.17028330 [kcal/mol]      -4.89646534 [kJ/mol]

    Dispersion                     -5.87225667 [mEh]      -3.68489669 [kcal/mol]     -15.41760775 [kJ/mol]
      Disp20                       -6.37742028 [mEh]      -4.00189164 [kcal/mol]     -16.74391463 [kJ/mol]
      Disp21                        0.53982731 [mEh]       0.33874675 [kcal/mol]       1.41731641 [kJ/mol]
      Disp22 (SDQ)                 -0.78779633 [mEh]      -0.49434966 [kcal/mol]      -2.06835898 [kJ/mol]
      Disp22 (T)                   -0.97791348 [mEh]      -0.61364997 [kcal/mol]      -2.56751149 [kJ/mol]
      Est. Disp22 (T)              -1.09621133 [mEh]      -0.68788299 [kcal/mol]      -2.87810244 [kJ/mol]
      Exch-Disp20                   1.84934396 [mEh]       1.16048085 [kcal/mol]       4.85545189 [kJ/mol]

  Total HF                        -43.33238301 [mEh]     -27.19148086 [kcal/mol]    -113.76915593 [kJ/mol]
  Total SAPT0                     -47.86045933 [mEh]     -30.03289165 [kcal/mol]    -125.65761867 [kJ/mol]
  Total SAPT2                     -47.09401542 [mEh]     -29.55194084 [kcal/mol]    -123.64532046 [kJ/mol]
  Total SAPT2+                    -48.43819577 [mEh]     -30.39542674 [kcal/mol]    -127.17446547 [kJ/mol]

  Special recipe for scaled SAPT0 (see Manual):
    Electrostatics sSAPT0         -65.04458335 [mEh]     -40.81609227 [kcal/mol]    -170.77453005 [kJ/mol]
    Exchange sSAPT0                35.83288705 [mEh]      22.48547610 [kcal/mol]      94.07923199 [kJ/mol]
    Induction sSAPT0              -11.82259283 [mEh]      -7.41878901 [kcal/mol]     -31.04021320 [kJ/mol]
    Dispersion sSAPT0              -4.44854178 [mEh]      -2.79150211 [kcal/mol]     -11.67964483 [kJ/mol]
  Total sSAPT0                    -45.48283091 [mEh]     -28.54090729 [kcal/mol]    -119.41515609 [kJ/mol]
  --------------------------------------------------------------------------------------------------------

*** Psi4 exiting successfully. Buy a developer a beer!
