                               Psi4 1.9 release

  ==> Input File <==

--------------------------------------------------------------------------
MEMORY 60 GB

molecule dimer {
0 1
K      0.000000     0.000000     0.000000
F      0.000000     2.175180     0.000000
--
-1 1
F      2.175180     0.000000     0.000000

units ang
no_reorient
no_com
symmetry c1
}

set {
basis        aug-cc-pVTZ
scf_type     df
}

energy("sapt2+")
--------------------------------------------------------------------------

  //              Dimer HF             //
    Molecular point group: c1
  Charge       = -1
  Multiplicity = 1
  Basis Set: AUG-CC-PVTZ
    Blend: AUG-CC-PVTZ
  Basis Set: (AUG-CC-PVTZ AUX)
    Blend: AUG-CC-PVTZ-JKFIT + DEF2-UNIVERSAL-JKFIT
  @DF-RHF Final Energy:  -798.17326420037296
    Total Energy =                       -798.1732642003730689
 Dipole X            :        -40.5243304           36.9944503           -3.5298802
 Dipole Y            :        -40.5243304           36.9944503           -3.5298802
 Dipole Z            :          0.0000000            0.0000000            0.0000000
 Magnitude           :                                                    4.9920044
  //            Monomer A HF           //
    Molecular point group: c1
  Multiplicity = 1
  Basis Set: AUG-CC-PVTZ
    Blend: AUG-CC-PVTZ
  Basis Set: (AUG-CC-PVTZ AUX)
    Blend: AUG-CC-PVTZ-JKFIT + DEF2-UNIVERSAL-JKFIT
  @DF-RHF Final Energy:  -698.68427433278043
    Total Energy =                       -698.6842743327804328
  //            Monomer B HF           //
    Molecular point group: c1

    Geometry (in Angstrom), charge = -1, multiplicity = 1:

       Center              X                  Y                   Z               Mass
    ------------   -----------------  -----------------  -----------------  -----------------
      Gh(K)           0.000000000000     0.000000000000     0.000000000000    38.963706486400
      Gh(F)           0.000000000000     2.175180000000     0.000000000000    18.998403162730
         F            2.175180000000     0.000000000000     0.000000000000    18.998403162730

  Charge       = -1
  Multiplicity = 1
  Basis Set: AUG-CC-PVTZ
    Blend: AUG-CC-PVTZ
  Basis Set: (AUG-CC-PVTZ AUX)
    Blend: AUG-CC-PVTZ-JKFIT + DEF2-UNIVERSAL-JKFIT

    Orbital Energies [Eh]
    ---------------------

    Doubly Occupied:

       1A    -25.833891     2A     -1.076108     3A     -0.181058
       4A     -0.181027     5A     -0.181025

  @DF-RHF Final Energy:   -99.45085219320231

   => Energetics <=

    Nuclear Repulsion Energy =              0.0000000000000000
    One-Electron Energy =                -143.9954850316025272
    Two-Electron Energy =                  44.5446328384002115
    Total Energy =                        -99.4508521932023086
 Dipole X            :        -41.1048168           36.9944503           -4.1103666
 Dipole Y            :         -0.0000467            0.0000000           -0.0000467
 Dipole Z            :         -0.0000000            0.0000000           -0.0000000
 Magnitude           :                                                    4.1103666

    SAPT Results
  --------------------------------------------------------------------------------------------------------
    Electrostatics                -98.56885710 [mEh]     -61.85289165 [kcal/mol]    -258.79249866 [kJ/mol]
      Elst10,r                    -91.77406316 [mEh]     -57.58909408 [kcal/mol]    -240.95276962 [kJ/mol]
      Elst12,r                     -6.79479394 [mEh]      -4.26379757 [kcal/mol]     -17.83972904 [kJ/mol]

    Exchange                       90.31433513 [mEh]      56.67310091 [kcal/mol]     237.12025422 [kJ/mol]
      Exch10                       74.97916526 [mEh]      47.05013654 [kcal/mol]     196.85777126 [kJ/mol]
      Exch10(S^2)                  73.02448579 [mEh]      45.82355665 [kcal/mol]     191.72576103 [kJ/mol]
      Exch11(S^2)                  -1.16811766 [mEh]      -0.73300490 [kcal/mol]      -3.06689250 [kJ/mol]
      Exch12(S^2)                  16.50328753 [mEh]      10.35596928 [kcal/mol]      43.32937545 [kJ/mol]

    Induction                     -28.15766911 [mEh]     -17.66920413 [kcal/mol]     -73.92795007 [kJ/mol]
      Ind20,r                    -123.73874379 [mEh]     -77.64723400 [kcal/mol]    -324.87602707 [kJ/mol]
      Ind22                       -42.94383341 [mEh]     -26.94766230 [kcal/mol]    -112.74901907 [kJ/mol]
      Exch-Ind20,r                104.10225154 [mEh]      65.32514908 [kcal/mol]     273.32042375 [kJ/mol]
      Exch-Ind22                   36.12894078 [mEh]      22.67125262 [kcal/mol]      94.85652096 [kJ/mol]
      delta HF,r (2)               -1.70628424 [mEh]      -1.07070952 [kcal/mol]      -4.47984864 [kJ/mol]

    Dispersion                     -9.01308916 [mEh]      -5.65579883 [kcal/mol]     -23.66386232 [kJ/mol]
      Disp20                      -10.65700745 [mEh]      -6.68737314 [kcal/mol]     -27.97996922 [kJ/mol]
      Disp21                        1.04477721 [mEh]       0.65560760 [kcal/mol]       2.74306219 [kJ/mol]
      Disp22 (SDQ)                 -1.15661871 [mEh]      -0.72578920 [kcal/mol]      -3.03670200 [kJ/mol]
      Disp22 (T)                   -1.53419159 [mEh]      -0.96271976 [kcal/mol]      -4.02801947 [kJ/mol]
      Est. Disp22 (T)              -1.70960473 [mEh]      -1.07279317 [kcal/mol]      -4.48856661 [kJ/mol]
      Exch-Disp20                   3.46536453 [mEh]       2.17454907 [kcal/mol]       9.09831331 [kJ/mol]

  Total HF                        -38.13767439 [mEh]     -23.93175199 [kcal/mol]    -100.13045032 [kJ/mol]
  Total SAPT0                     -45.32931732 [mEh]     -28.44457606 [kcal/mol]    -119.01210622 [kJ/mol]
  Total SAPT2                     -43.60383401 [mEh]     -27.36181894 [kcal/mol]    -114.48185042 [kJ/mol]
  Total SAPT2+                    -45.42528024 [mEh]     -28.50479370 [kcal/mol]    -119.26405684 [kJ/mol]

  Special recipe for scaled SAPT0 (see Manual):
    Electrostatics sSAPT0         -91.77406316 [mEh]     -57.58909408 [kcal/mol]    -240.95276962 [kJ/mol]
    Exchange sSAPT0                74.97916526 [mEh]      47.05013654 [kcal/mol]     196.85777126 [kJ/mol]
    Induction sSAPT0              -12.75735696 [mEh]      -8.00536235 [kcal/mol]     -33.49443608 [kJ/mol]
    Dispersion sSAPT0              -6.90585076 [mEh]      -4.33348678 [kcal/mol]     -18.13130867 [kJ/mol]
  Total sSAPT0                    -36.45810562 [mEh]     -22.87780667 [kcal/mol]     -95.72074311 [kJ/mol]
  --------------------------------------------------------------------------------------------------------

*** Psi4 exiting successfully. Buy a developer a beer!
