                               Psi4 1.9 release

  ==> Input File <==

--------------------------------------------------------------------------
MEMORY 60 GB

molecule dimer {
0 1
K      0.000000     0.000000     0.000000
F      0.000000     2.175180     0.000000
--
-1 1
F      2.827734     0.000000     0.000000

units ang
no_reorient
no_com
symmetry c1
}

set {
basis        aug-cc-pVTZ
scf_type     df
}

energy("sapt2+")
--------------------------------------------------------------------------

  //              Dimer HF             //
    Molecular point group: c1
  Charge       = -1
  Multiplicity = 1
  Basis Set: AUG-CC-PVTZ
    Blend: AUG-CC-PVTZ
  Basis Set: (AUG-CC-PVTZ AUX)
    Blend: AUG-CC-PVTZ-JKFIT + DEF2-UNIVERSAL-JKFIT
  @DF-RHF Final Energy:  -798.17166976115743
    Total Energy =                       -798.1716697611575455
 Dipole X            :        -53.0329513           48.0927853           -4.9401660
 Dipole Y            :        -40.4953018           36.9944503           -3.5008515
 Dipole Z            :          0.0000000            0.0000000            0.0000000
 Magnitude           :                                                    6.0548494
  //            Monomer A HF           //
    Molecular point group: c1
  Multiplicity = 1
  Basis Set: AUG-CC-PVTZ
    Blend: AUG-CC-PVTZ
  Basis Set: (AUG-CC-PVTZ AUX)
    Blend: AUG-CC-PVTZ-JKFIT + DEF2-UNIVERSAL-JKFIT
  @DF-RHF Final Energy:  -698.68416880820848
    Total Energy =                       -698.6841688082084829
  //            Monomer B HF           //
    Molecular point group: c1

    Geometry (in Angstrom), charge = -1, multiplicity = 1:

       Center              X                  Y                   Z               Mass
    ------------   -----------------  -----------------  -----------------  -----------------
      Gh(K)           0.000000000000     0.000000000000     0.000000000000    38.963706486400
      Gh(F)           0.000000000000     2.175180000000     0.000000000000    18.998403162730
         F            2.827734000000     0.000000000000     0.000000000000    18.998403162730

  Charge       = -1
  Multiplicity = 1
  Basis Set: AUG-CC-PVTZ
    Blend: AUG-CC-PVTZ
  Basis Set: (AUG-CC-PVTZ AUX)
    Blend: AUG-CC-PVTZ-JKFIT + DEF2-UNIVERSAL-JKFIT

    Orbital Energies [Eh]
    ---------------------

    Doubly Occupied:

       1A    -25.833896     2A     -1.076114     3A     -0.181045
       4A     -0.181036     5A     -0.181036

  @DF-RHF Final Energy:   -99.45083190033382

   => Energetics <=

    Nuclear Repulsion Energy =              0.0000000000000000
    One-Electron Energy =                -143.9954114600328126
    Two-Electron Energy =                  44.5445795596989882
    Total Energy =                        -99.4508319003338244
 Dipole X            :        -53.4362318           48.0927853           -5.3434464
 Dipole Y            :         -0.0000550            0.0000000           -0.0000550
 Dipole Z            :         -0.0000000            0.0000000           -0.0000000
 Magnitude           :                                                    5.3434464

    SAPT Results
  --------------------------------------------------------------------------------------------------------
    Electrostatics                -39.74804950 [mEh]     -24.94227763 [kcal/mol]    -104.35848960 [kJ/mol]
      Elst10,r                    -38.16306657 [mEh]     -23.94768582 [kcal/mol]    -100.19711746 [kJ/mol]
      Elst12,r                     -1.58498294 [mEh]      -0.99459181 [kcal/mol]      -4.16137213 [kJ/mol]

    Exchange                       12.55692275 [mEh]       7.87958799 [kcal/mol]      32.96819613 [kJ/mol]
      Exch10                        8.65889244 [mEh]       5.43353704 [kcal/mol]      22.73391897 [kJ/mol]
      Exch10(S^2)                   8.62374931 [mEh]       5.41148439 [kcal/mol]      22.64165068 [kJ/mol]
      Exch11(S^2)                  -0.05466215 [mEh]      -0.03430102 [kcal/mol]      -0.14351546 [kJ/mol]
      Exch12(S^2)                   3.95269246 [mEh]       2.48035196 [kcal/mol]      10.37779262 [kJ/mol]

    Induction                     -10.18913639 [mEh]      -6.39377962 [kcal/mol]     -26.75157391 [kJ/mol]
      Ind20,r                     -20.92551718 [mEh]     -13.13096027 [kcal/mol]     -54.93993779 [kJ/mol]
      Ind22                        -9.66449825 [mEh]      -6.06456421 [kcal/mol]     -25.37413665 [kJ/mol]
      Exch-Ind20,r                 14.37741100 [mEh]       9.02196161 [kcal/mol]      37.74788739 [kJ/mol]
      Exch-Ind22                    6.64024035 [mEh]       4.16681373 [kcal/mol]      17.43394863 [kJ/mol]
      delta HF,r (2)               -0.61677232 [mEh]      -0.38703047 [kcal/mol]      -1.61933549 [kJ/mol]

    Dispersion                     -2.65874873 [mEh]      -1.66839002 [kcal/mol]      -6.98054383 [kJ/mol]
      Disp20                       -2.49758638 [mEh]      -1.56725912 [kcal/mol]      -6.55741215 [kJ/mol]
      Disp21                        0.17562724 [mEh]       0.11020776 [kcal/mol]       0.46110927 [kJ/mol]
      Disp22 (SDQ)                 -0.39473287 [mEh]      -0.24769861 [kcal/mol]      -1.03637100 [kJ/mol]
      Disp22 (T)                   -0.40952757 [mEh]      -0.25698243 [kcal/mol]      -1.07521448 [kJ/mol]
      Est. Disp22 (T)              -0.47744883 [mEh]      -0.29960366 [kcal/mol]      -1.25354172 [kJ/mol]
      Exch-Disp20                   0.53539210 [mEh]       0.33596362 [kcal/mol]       1.40567178 [kJ/mol]

  Total HF                        -36.66905262 [mEh]     -23.01017791 [kcal/mol]     -96.27458438 [kJ/mol]
  Total SAPT0                     -38.63124689 [mEh]     -24.24147341 [kcal/mol]    -101.42632475 [kJ/mol]
  Total SAPT2                     -39.34245743 [mEh]     -24.68776476 [kcal/mol]    -103.29360774 [kJ/mol]
  Total SAPT2+                    -40.03901188 [mEh]     -25.12485927 [kcal/mol]    -105.12241120 [kJ/mol]

  Special recipe for scaled SAPT0 (see Manual):
    Electrostatics sSAPT0         -38.16306657 [mEh]     -23.94768582 [kcal/mol]    -100.19711746 [kJ/mol]
    Exchange sSAPT0                 8.65889244 [mEh]       5.43353704 [kcal/mol]      22.73391897 [kJ/mol]
    Induction sSAPT0               -6.98839059 [mEh]      -4.38528130 [kcal/mol]     -18.34801695 [kJ/mol]
    Dispersion sSAPT0              -1.95562215 [mEh]      -1.22717143 [kcal/mol]      -5.13448524 [kJ/mol]
  Total sSAPT0                    -38.44818686 [mEh]     -24.12660150 [kcal/mol]    -100.94570069 [kJ/mol]
  --------------------------------------------------------------------------------------------------------

*** Psi4 exiting successfully. Buy a developer a beer!
