                               Psi4 1.9 release

  ==> Input File <==

--------------------------------------------------------------------------
MEMORY 60 GB

molecule dimer {
0 1
K      0.000000     0.000000     0.000000
F      0.000000     2.175180     0.000000
--
-1 1
F      3.262770     0.000000     0.000000

units ang
no_reorient
no_com
symmetry c1
}

set {
basis        aug-cc-pVTZ
scf_type     df
}

energy("sapt2+")
--------------------------------------------------------------------------

  //              Dimer HF             //
    Molecular point group: c1
  Charge       = -1
  Multiplicity = 1
  Basis Set: AUG-CC-PVTZ
    Blend: AUG-CC-PVTZ
  Basis Set: (AUG-CC-PVTZ AUX)
    Blend: AUG-CC-PVTZ-JKFIT + DEF2-UNIVERSAL-JKFIT
  @DF-RHF Final Energy:  -798.16212342749225
    Total Energy =                       -798.1621234274922472
 Dipole X            :        -61.3312765           55.4916754           -5.8396011
 Dipole Y            :        -40.4876105           36.9944503           -3.4931603
 Dipole Z            :          0.0000000            0.0000000            0.0000000
 Magnitude           :                                                    6.8046388
  //            Monomer A HF           //
    Molecular point group: c1
  Multiplicity = 1
  Basis Set: AUG-CC-PVTZ
    Blend: AUG-CC-PVTZ
  Basis Set: (AUG-CC-PVTZ AUX)
    Blend: AUG-CC-PVTZ-JKFIT + DEF2-UNIVERSAL-JKFIT
  @DF-RHF Final Energy:  -698.68415214663105
    Total Energy =                       -698.6841521466310496
  //            Monomer B HF           //
    Molecular point group: c1

    Geometry (in Angstrom), charge = -1, multiplicity = 1:

       Center              X                  Y                   Z               Mass
    ------------   -----------------  -----------------  -----------------  -----------------
      Gh(K)           0.000000000000     0.000000000000     0.000000000000    38.963706486400
      Gh(F)           0.000000000000     2.175180000000     0.000000000000    18.998403162730
         F            3.262770000000     0.000000000000     0.000000000000    18.998403162730

  Charge       = -1
  Multiplicity = 1
  Basis Set: AUG-CC-PVTZ
    Blend: AUG-CC-PVTZ
  Basis Set: (AUG-CC-PVTZ AUX)
    Blend: AUG-CC-PVTZ-JKFIT + DEF2-UNIVERSAL-JKFIT

    Orbital Energies [Eh]
    ---------------------

    Doubly Occupied:

       1A    -25.833888     2A     -1.076116     3A     -0.181040
       4A     -0.181038     5A     -0.181038

  @DF-RHF Final Energy:   -99.45082660605836

   => Energetics <=

    Nuclear Repulsion Energy =              0.0000000000000000
    One-Electron Energy =                -143.9954133177908773
    Two-Electron Energy =                  44.5445867117325136
    Total Energy =                        -99.4508266060583708
 Dipole X            :        -61.6571630           55.4916754           -6.1654876
 Dipole Y            :         -0.0001857            0.0000000           -0.0001857
 Dipole Z            :          0.0000000            0.0000000            0.0000000
 Magnitude           :                                                    6.1654876

    SAPT Results
  --------------------------------------------------------------------------------------------------------
    Electrostatics                -25.69615732 [mEh]     -16.12458216 [kcal/mol]     -67.46525176 [kJ/mol]
      Elst10,r                    -25.26998451 [mEh]     -15.85715468 [kcal/mol]     -66.34633519 [kJ/mol]
      Elst12,r                     -0.42617281 [mEh]      -0.26742748 [kcal/mol]      -1.11891657 [kJ/mol]

    Exchange                        3.65305510 [mEh]       2.29232668 [kcal/mol]       9.59109483 [kJ/mol]
      Exch10                        2.24219681 [mEh]       1.40699974 [kcal/mol]       5.88688692 [kJ/mol]
      Exch10(S^2)                   2.23943385 [mEh]       1.40526596 [kcal/mol]       5.87963278 [kJ/mol]
      Exch11(S^2)                  -0.00652041 [mEh]      -0.00409162 [kcal/mol]      -0.01711933 [kJ/mol]
      Exch12(S^2)                   1.41737869 [mEh]       0.88941856 [kcal/mol]       3.72132724 [kJ/mol]

    Induction                      -5.95680318 [mEh]      -3.73795043 [kcal/mol]     -15.63958460 [kJ/mol]
      Ind20,r                      -7.93138410 [mEh]      -4.97701866 [kcal/mol]     -20.82384608 [kJ/mol]
      Ind22                        -3.67027231 [mEh]      -2.30313065 [kcal/mol]      -9.63629863 [kJ/mol]
      Exch-Ind20,r                  3.95536274 [mEh]       2.48202759 [kcal/mol]      10.38480344 [kJ/mol]
      Exch-Ind22                    1.83035624 [mEh]       1.14856588 [kcal/mol]       4.80559964 [kJ/mol]
      delta HF,r (2)               -0.14086575 [mEh]      -0.08839459 [kcal/mol]      -0.36984297 [kJ/mol]

    Dispersion                     -1.31612452 [mEh]      -0.82588061 [kcal/mol]      -3.45548446 [kJ/mol]
      Disp20                       -1.10697227 [mEh]      -0.69463558 [kcal/mol]      -2.90635528 [kJ/mol]
      Disp21                        0.06745317 [mEh]       0.04232750 [kcal/mol]       0.17709826 [kJ/mol]
      Disp22 (SDQ)                 -0.20978210 [mEh]      -0.13164025 [kcal/mol]      -0.55078282 [kJ/mol]
      Disp22 (T)                   -0.20304940 [mEh]      -0.12741542 [kcal/mol]      -0.53310614 [kJ/mol]
      Est. Disp22 (T)              -0.23093648 [mEh]      -0.14491483 [kcal/mol]      -0.60632366 [kJ/mol]
      Exch-Disp20                   0.16411316 [mEh]       0.10298256 [kcal/mol]       0.43087904 [kJ/mol]

  Total HF                        -27.14467480 [mEh]     -17.03354060 [kcal/mol]     -71.26833388 [kJ/mol]
  Total SAPT0                     -28.08753391 [mEh]     -17.62519362 [kcal/mol]     -73.74381012 [kJ/mol]
  Total SAPT2                     -28.94276452 [mEh]     -18.16185893 [kcal/mol]     -75.98921777 [kJ/mol]
  Total SAPT2+                    -29.31602993 [mEh]     -18.39608652 [kcal/mol]     -76.96922599 [kJ/mol]

  Special recipe for scaled SAPT0 (see Manual):
    Electrostatics sSAPT0         -25.26998451 [mEh]     -15.85715468 [kcal/mol]     -66.34633519 [kJ/mol]
    Exchange sSAPT0                 2.24219681 [mEh]       1.40699974 [kcal/mol]       5.88688692 [kJ/mol]
    Induction sSAPT0               -4.10222894 [mEh]      -2.57418753 [kcal/mol]     -10.77040061 [kJ/mol]
    Dispersion sSAPT0              -0.94225092 [mEh]      -0.59127138 [kcal/mol]      -2.47387945 [kJ/mol]
  Total sSAPT0                    -28.07226756 [mEh]     -17.61561385 [kcal/mol]     -73.70372833 [kJ/mol]
  --------------------------------------------------------------------------------------------------------

*** Psi4 exiting successfully. Buy a developer a beer!
