                               Psi4 1.9 release

  ==> Input File <==

--------------------------------------------------------------------------
MEMORY 60 GB

molecule dimer {
0 1
K      0.000000     0.000000     0.000000
F      0.000000     2.175180     0.000000
--
-1 1
F      3.045252     0.000000     0.000000

units ang
no_reorient
no_com
symmetry c1
}

set {
basis        aug-cc-pVTZ
scf_type     df
}

energy("sapt2+")
--------------------------------------------------------------------------

  //              Dimer HF             //
    Molecular point group: c1
  Charge       = -1
  Multiplicity = 1
  Basis Set: AUG-CC-PVTZ
    Blend: AUG-CC-PVTZ
  Basis Set: (AUG-CC-PVTZ AUX)
    Blend: AUG-CC-PVTZ-JKFIT + DEF2-UNIVERSAL-JKFIT
  @DF-RHF Final Energy:  -798.16670908148706
    Total Energy =                       -798.1667090814870562
 Dipole X            :        -57.1841379           51.7922304           -5.3919075
 Dipole Y            :        -40.4907177           36.9944503           -3.4962675
 Dipole Z            :          0.0000000            0.0000000            0.0000000
 Magnitude           :                                                    6.4262394
  //            Monomer A HF           //
    Molecular point group: c1
  Multiplicity = 1
  Basis Set: AUG-CC-PVTZ
    Blend: AUG-CC-PVTZ
  Basis Set: (AUG-CC-PVTZ AUX)
    Blend: AUG-CC-PVTZ-JKFIT + DEF2-UNIVERSAL-JKFIT
  @DF-RHF Final Energy:  -698.68415691129280
    Total Energy =                       -698.6841569112928028
  //            Monomer B HF           //
    Molecular point group: c1

    Geometry (in Angstrom), charge = -1, multiplicity = 1:

       Center              X                  Y                   Z               Mass
    ------------   -----------------  -----------------  -----------------  -----------------
      Gh(K)           0.000000000000     0.000000000000     0.000000000000    38.963706486400
      Gh(F)           0.000000000000     2.175180000000     0.000000000000    18.998403162730
         F            3.045252000000     0.000000000000     0.000000000000    18.998403162730

  Charge       = -1
  Multiplicity = 1
  Basis Set: AUG-CC-PVTZ
    Blend: AUG-CC-PVTZ
  Basis Set: (AUG-CC-PVTZ AUX)
    Blend: AUG-CC-PVTZ-JKFIT + DEF2-UNIVERSAL-JKFIT

    Orbital Energies [Eh]
    ---------------------

    Doubly Occupied:

       1A    -25.833893     2A     -1.076115     3A     -0.181042
       4A     -0.181037     5A     -0.181037

  @DF-RHF Final Energy:   -99.45082849126213

   => Energetics <=

    Nuclear Repulsion Energy =              0.0000000000000000
    One-Electron Energy =                -143.9954086825215427
    Two-Electron Energy =                  44.5445801912594135
    Total Energy =                        -99.4508284912621292
 Dipole X            :        -57.5467314           51.7922304           -5.7545010
 Dipole Y            :         -0.0001299            0.0000000           -0.0001299
 Dipole Z            :          0.0000000            0.0000000            0.0000000
 Magnitude           :                                                    5.7545010

    SAPT Results
  --------------------------------------------------------------------------------------------------------
    Electrostatics                -31.57865773 [mEh]     -19.81590689 [kcal/mol]     -82.90975444 [kJ/mol]
      Elst10,r                    -30.72130401 [mEh]     -19.27790931 [kcal/mol]     -80.65877257 [kJ/mol]
      Elst12,r                     -0.85735371 [mEh]      -0.53799758 [kcal/mol]      -2.25098187 [kJ/mol]

    Exchange                        6.72788187 [mEh]       4.22180961 [kcal/mol]      17.66405141 [kJ/mol]
      Exch10                        4.37043053 [mEh]       2.74248656 [kcal/mol]      11.47456378 [kJ/mol]
      Exch10(S^2)                   4.36071902 [mEh]       2.73639250 [kcal/mol]      11.44906621 [kJ/mol]
      Exch11(S^2)                  -0.01881938 [mEh]      -0.01180934 [kcal/mol]      -0.04941028 [kJ/mol]
      Exch12(S^2)                   2.37627072 [mEh]       1.49113239 [kcal/mol]       6.23889791 [kJ/mol]

    Induction                      -7.75731076 [mEh]      -4.86778599 [kcal/mol]     -20.36681659 [kJ/mol]
      Ind20,r                     -12.58702542 [mEh]      -7.89847770 [kcal/mol]     -33.04723070 [kJ/mol]
      Ind22                        -5.92209968 [mEh]      -3.71617365 [kcal/mol]     -15.54847057 [kJ/mol]
      Exch-Ind20,r                  7.51891942 [mEh]       4.71819317 [kcal/mol]      19.74092021 [kJ/mol]
      Exch-Ind22                    3.53759437 [mEh]       2.21987398 [kcal/mol]       9.28795274 [kJ/mol]
      delta HF,r (2)               -0.30469945 [mEh]      -0.19120179 [kcal/mol]      -0.79998828 [kJ/mol]

    Dispersion                     -1.85394107 [mEh]      -1.16336558 [kcal/mol]      -4.86752160 [kJ/mol]
      Disp20                       -1.63991160 [mEh]      -1.02906007 [kcal/mol]      -4.30558731 [kJ/mol]
      Disp21                        0.10727760 [mEh]       0.06731771 [kcal/mol]       0.28165731 [kJ/mol]
      Disp22 (SDQ)                 -0.28687213 [mEh]      -0.18001498 [kcal/mol]      -0.75318268 [kJ/mol]
      Disp22 (T)                   -0.28519867 [mEh]      -0.17896487 [kcal/mol]      -0.74878901 [kJ/mol]
      Est. Disp22 (T)              -0.32830917 [mEh]      -0.20601711 [kcal/mol]      -0.86197560 [kJ/mol]
      Exch-Disp20                   0.29387423 [mEh]       0.18440887 [kcal/mol]       0.77156669 [kJ/mol]

  Total HF                        -31.72367893 [mEh]     -19.90690907 [kcal/mol]     -83.29050756 [kJ/mol]
  Total SAPT0                     -33.06971630 [mEh]     -20.75156027 [kcal/mol]     -86.82452818 [kJ/mol]
  Total SAPT2                     -33.95412398 [mEh]     -21.30653447 [kcal/mol]     -89.14654024 [kJ/mol]
  Total SAPT2+                    -34.46202768 [mEh]     -21.62524886 [kcal/mol]     -90.48004122 [kJ/mol]

  Special recipe for scaled SAPT0 (see Manual):
    Electrostatics sSAPT0         -30.72130401 [mEh]     -19.27790931 [kcal/mol]     -80.65877257 [kJ/mol]
    Exchange sSAPT0                 4.37043053 [mEh]       2.74248656 [kcal/mol]      11.47456378 [kJ/mol]
    Induction sSAPT0               -5.32245861 [mEh]      -3.33989320 [kcal/mol]     -13.97411315 [kJ/mol]
    Dispersion sSAPT0              -1.34406958 [mEh]      -0.84341639 [kcal/mol]      -3.52885419 [kJ/mol]
  Total sSAPT0                    -33.01740167 [mEh]     -20.71873235 [kcal/mol]     -86.68717614 [kJ/mol]
  --------------------------------------------------------------------------------------------------------

*** Psi4 exiting successfully. Buy a developer a beer!
