                               Psi4 1.9 release

  ==> Input File <==

--------------------------------------------------------------------------
MEMORY 60 GB

molecule dimer {
0 1
Cl     0.000000     0.000000     0.000000
K      0.000000     2.633546     0.000000
--
1 1
K      3.423610     0.000000     0.000000

units ang
no_reorient
no_com
symmetry c1
}

set {
basis        aug-cc-pVTZ
scf_type     df
}

energy("sapt2+")
--------------------------------------------------------------------------

  //              Dimer HF             //
    Molecular point group: c1
  Charge       = 1
  Multiplicity = 1
  Basis Set: AUG-CC-PVTZ
    Blend: AUG-CC-PVTZ
  Basis Set: (AUG-CC-PVTZ AUX)
    Blend: AUG-CC-PVTZ-JKFIT + DEF2-UNIVERSAL-JKFIT
  @DF-RHF Final Energy: -1657.81953075942215
    Total Energy =                      -1657.8195307594223777
 Dipole X            :       -117.1075467          122.9240199            5.8164732
 Dipole Y            :        -90.3999129           94.5569329            4.1570200
 Dipole Z            :         -0.0000000            0.0000000           -0.0000000
 Magnitude           :                                                    7.1492780
  //            Monomer A HF           //
    Molecular point group: c1
  Multiplicity = 1
  Basis Set: AUG-CC-PVTZ
    Blend: AUG-CC-PVTZ
  Basis Set: (AUG-CC-PVTZ AUX)
    Blend: AUG-CC-PVTZ-JKFIT + DEF2-UNIVERSAL-JKFIT
  @DF-RHF Final Energy: -1058.76874866954245
    Total Energy =                      -1058.7687486695424468
  //            Monomer B HF           //
    Molecular point group: c1

    Geometry (in Angstrom), charge = 1, multiplicity = 1:

       Center              X                  Y                   Z               Mass
    ------------   -----------------  -----------------  -----------------  -----------------
      Gh(CL)          0.000000000000     0.000000000000     0.000000000000    34.968852682000
      Gh(K)           0.000000000000     2.633546000000     0.000000000000    38.963706486400
         K            3.423610000000     0.000000000000     0.000000000000    38.963706486400

  Charge       = 1
  Multiplicity = 1
  Basis Set: AUG-CC-PVTZ
    Blend: AUG-CC-PVTZ
  Basis Set: (AUG-CC-PVTZ AUX)
    Blend: AUG-CC-PVTZ-JKFIT + DEF2-UNIVERSAL-JKFIT

    Orbital Energies [Eh]
    ---------------------

    Doubly Occupied:

       1A   -133.753615     2A    -14.709096     3A    -11.739161
       4A    -11.739157     5A    -11.739156     6A     -1.964317
       7A     -1.170939     8A     -1.170903     9A     -1.170895

  @DF-RHF Final Energy:  -599.01750818020753

   => Energetics <=

    Nuclear Repulsion Energy =              0.0000000000000000
    One-Electron Energy =                -819.7205395274326065
    Two-Electron Energy =                 220.7030313472251351
    Total Energy =                       -599.0175081802074146
 Dipole X            :       -116.4547002          122.9240199            6.4693198
 Dipole Y            :          0.0001189            0.0000000            0.0001189
 Dipole Z            :          0.0000000            0.0000000            0.0000000
 Magnitude           :                                                    6.4693198

    SAPT Results
  --------------------------------------------------------------------------------------------------------
    Electrostatics                -30.38242917 [mEh]     -19.06526214 [kcal/mol]     -79.76905680 [kJ/mol]
      Elst10,r                    -30.30587657 [mEh]     -19.01722466 [kcal/mol]     -79.56806797 [kJ/mol]
      Elst12,r                     -0.07655260 [mEh]      -0.04803748 [kcal/mol]      -0.20098883 [kJ/mol]

    Exchange                        5.64810612 [mEh]       3.54424010 [kcal/mol]      14.82910058 [kJ/mol]
      Exch10                        5.15591298 [mEh]       3.23538424 [kcal/mol]      13.53684765 [kJ/mol]
      Exch10(S^2)                   5.14209862 [mEh]       3.22671560 [kcal/mol]      13.50057805 [kJ/mol]
      Exch11(S^2)                   0.02286341 [mEh]       0.01434701 [kcal/mol]       0.06002788 [kJ/mol]
      Exch12(S^2)                   0.46932973 [mEh]       0.29450885 [kcal/mol]       1.23222504 [kJ/mol]

    Induction                      -9.02866944 [mEh]      -5.66557561 [kcal/mol]     -23.70476835 [kJ/mol]
      Ind20,r                     -17.51285634 [mEh]     -10.98948327 [kcal/mol]     -45.97999799 [kJ/mol]
      Ind22                        -1.97628956 [mEh]      -1.24014042 [kcal/mol]      -5.18874751 [kJ/mol]
      Exch-Ind20,r                  9.49566564 [mEh]       5.95862015 [kcal/mol]      24.93086670 [kJ/mol]
      Exch-Ind22                    1.07156619 [mEh]       0.67241794 [kcal/mol]       2.81339666 [kJ/mol]
      delta HF,r (2)               -0.10675538 [mEh]      -0.06699001 [kcal/mol]      -0.28028620 [kJ/mol]

    Dispersion                     -1.43091453 [mEh]      -0.89791243 [kcal/mol]      -3.75686559 [kJ/mol]
      Disp20                       -1.78475117 [mEh]      -1.11994827 [kcal/mol]      -4.68586356 [kJ/mol]
      Disp21                        0.33663961 [mEh]       0.21124455 [kcal/mol]       0.88384718 [kJ/mol]
      Disp22 (SDQ)                 -0.01336032 [mEh]      -0.00838373 [kcal/mol]      -0.03507751 [kJ/mol]
      Disp22 (T)                   -0.17554105 [mEh]      -0.11015367 [kcal/mol]      -0.46088296 [kJ/mol]
      Est. Disp22 (T)              -0.19077663 [mEh]      -0.11971414 [kcal/mol]      -0.50088397 [kJ/mol]
      Exch-Disp20                   0.22133397 [mEh]       0.13888917 [kcal/mol]       0.58111227 [kJ/mol]

  Total HF                        -33.27390967 [mEh]     -20.87969355 [kcal/mol]     -87.36063781 [kJ/mol]
  Total SAPT0                     -34.83732687 [mEh]     -21.86075265 [kcal/mol]     -91.46538910 [kJ/mol]
  Total SAPT2                     -35.32640969 [mEh]     -22.16765675 [kcal/mol]     -92.74947586 [kJ/mol]
  Total SAPT2+                    -35.19390702 [mEh]     -22.08451008 [kcal/mol]     -92.40159016 [kJ/mol]

  Special recipe for scaled SAPT0 (see Manual):
    Electrostatics sSAPT0         -30.30587657 [mEh]     -19.01722466 [kcal/mol]     -79.56806797 [kJ/mol]
    Exchange sSAPT0                 5.15591298 [mEh]       3.23538424 [kcal/mol]      13.53684765 [kJ/mol]
    Induction sSAPT0               -8.04720935 [mEh]      -5.04970010 [kcal/mol]     -21.12794524 [kJ/mol]
    Dispersion sSAPT0              -1.56162855 [mEh]      -0.97993671 [kcal/mol]      -4.10005518 [kJ/mol]
  Total sSAPT0                    -34.75880149 [mEh]     -21.81147723 [kcal/mol]     -91.25922074 [kJ/mol]
  --------------------------------------------------------------------------------------------------------

*** Psi4 exiting successfully. Buy a developer a beer!
