                               Psi4 1.9 release

  ==> Input File <==

--------------------------------------------------------------------------
MEMORY 60 GB

molecule dimer {
0 1
Cl     0.000000     0.000000     0.000000
K      0.000000     2.633546     0.000000
--
1 1
K      2.896901     0.000000     0.000000

units ang
no_reorient
no_com
symmetry c1
}

set {
basis        aug-cc-pVTZ
scf_type     df
}

energy("sapt2+")
--------------------------------------------------------------------------

  //              Dimer HF             //
    Molecular point group: c1
  Charge       = 1
  Multiplicity = 1
  Basis Set: AUG-CC-PVTZ
    Blend: AUG-CC-PVTZ
  Basis Set: (AUG-CC-PVTZ AUX)
    Blend: AUG-CC-PVTZ-JKFIT + DEF2-UNIVERSAL-JKFIT
  @DF-RHF Final Energy: -1657.82433824005875
    Total Energy =                      -1657.8243382400587507
 Dipole X            :        -99.2792619          104.0126405            4.7333786
 Dipole Y            :        -90.3733912           94.5569329            4.1835417
 Dipole Z            :          0.0000000            0.0000000            0.0000000
 Magnitude           :                                                    6.3171904
  //            Monomer A HF           //
    Molecular point group: c1
  Multiplicity = 1
  Basis Set: AUG-CC-PVTZ
    Blend: AUG-CC-PVTZ
  Basis Set: (AUG-CC-PVTZ AUX)
    Blend: AUG-CC-PVTZ-JKFIT + DEF2-UNIVERSAL-JKFIT
  @DF-RHF Final Energy: -1058.76876417941526
    Total Energy =                      -1058.7687641794152569
  //            Monomer B HF           //
    Molecular point group: c1

    Geometry (in Angstrom), charge = 1, multiplicity = 1:

       Center              X                  Y                   Z               Mass
    ------------   -----------------  -----------------  -----------------  -----------------
      Gh(CL)          0.000000000000     0.000000000000     0.000000000000    34.968852682000
      Gh(K)           0.000000000000     2.633546000000     0.000000000000    38.963706486400
         K            2.896901000000     0.000000000000     0.000000000000    38.963706486400

  Charge       = 1
  Multiplicity = 1
  Basis Set: AUG-CC-PVTZ
    Blend: AUG-CC-PVTZ
  Basis Set: (AUG-CC-PVTZ AUX)
    Blend: AUG-CC-PVTZ-JKFIT + DEF2-UNIVERSAL-JKFIT

    Orbital Energies [Eh]
    ---------------------

    Doubly Occupied:

       1A   -133.753505     2A    -14.709008     3A    -11.739074
       4A    -11.739069     5A    -11.739067     6A     -1.964272
       7A     -1.170913     8A     -1.170870     9A     -1.170856

  @DF-RHF Final Energy:  -599.01750909994041

   => Energetics <=

    Nuclear Repulsion Energy =              0.0000000000000000
    One-Electron Energy =                -819.7217540203561157
    Two-Electron Energy =                 220.7042449204157322
    Total Energy =                       -599.0175090999404119
 Dipole X            :        -98.5386943          104.0126405            5.4739463
 Dipole Y            :          0.0001414            0.0000000            0.0001414
 Dipole Z            :          0.0000000            0.0000000            0.0000000
 Magnitude           :                                                    5.4739463

    SAPT Results
  --------------------------------------------------------------------------------------------------------
    Electrostatics                -50.91091120 [mEh]     -31.94707909 [kcal/mol]    -133.66657893 [kJ/mol]
      Elst10,r                    -50.33853689 [mEh]     -31.58790880 [kcal/mol]    -132.16381041 [kJ/mol]
      Elst12,r                     -0.57237430 [mEh]      -0.35917030 [kcal/mol]      -1.50276852 [kJ/mol]

    Exchange                       27.18763574 [mEh]      17.06049900 [kcal/mol]      71.38112780 [kJ/mol]
      Exch10                       25.83248133 [mEh]      16.21012677 [kcal/mol]      67.82317039 [kJ/mol]
      Exch10(S^2)                  25.52815165 [mEh]      16.01915701 [kcal/mol]      67.02415292 [kJ/mol]
      Exch11(S^2)                  -0.03018043 [mEh]      -0.01893851 [kcal/mol]      -0.07923871 [kJ/mol]
      Exch12(S^2)                   1.38533484 [mEh]       0.86931074 [kcal/mol]       3.63719613 [kJ/mol]

    Induction                     -14.94129950 [mEh]      -9.37580699 [kcal/mol]     -39.22837644 [kJ/mol]
      Ind20,r                     -58.28062164 [mEh]     -36.57164222 [kcal/mol]    -153.01575103 [kJ/mol]
      Ind22                        -5.90793013 [mEh]      -3.70728213 [kcal/mol]     -15.51126843 [kJ/mol]
      Exch-Ind20,r                 44.64356078 [mEh]      28.01425733 [kcal/mol]     117.21165268 [kJ/mol]
      Exch-Ind22                    4.52553577 [mEh]       2.83981657 [kcal/mol]      11.88179253 [kJ/mol]
      delta HF,r (2)                0.07815572 [mEh]       0.04904346 [kcal/mol]       0.20519782 [kJ/mol]

    Dispersion                     -3.51452560 [mEh]      -2.20539811 [kcal/mol]      -9.22738570 [kJ/mol]
      Disp20                       -4.90384713 [mEh]      -3.07721053 [kcal/mol]     -12.87504887 [kJ/mol]
      Disp21                        0.88430254 [mEh]       0.55490822 [kcal/mol]       2.32173599 [kJ/mol]
      Disp22 (SDQ)                  0.00538009 [mEh]       0.00337606 [kcal/mol]       0.01412543 [kJ/mol]
      Disp22 (T)                   -0.45668143 [mEh]      -0.28657192 [kcal/mol]      -1.19901692 [kJ/mol]
      Est. Disp22 (T)              -0.49735534 [mEh]      -0.31209519 [kcal/mol]      -1.30580626 [kJ/mol]
      Exch-Disp20                   0.99699424 [mEh]       0.62562333 [kcal/mol]       2.61760801 [kJ/mol]

  Total HF                        -38.06496070 [mEh]     -23.88612346 [kcal/mol]     -99.93954056 [kJ/mol]
  Total SAPT0                     -41.97181360 [mEh]     -26.33771066 [kcal/mol]    -110.19698142 [kJ/mol]
  Total SAPT2                     -42.57142785 [mEh]     -26.71397429 [kcal/mol]    -111.77126843 [kJ/mol]
  Total SAPT2+                    -42.17910056 [mEh]     -26.46778520 [kcal/mol]    -110.74121326 [kJ/mol]

  Special recipe for scaled SAPT0 (see Manual):
    Electrostatics sSAPT0         -50.33853689 [mEh]     -31.58790880 [kcal/mol]    -132.16381041 [kJ/mol]
    Exchange sSAPT0                25.83248133 [mEh]      16.21012677 [kcal/mol]      67.82317039 [kJ/mol]
    Induction sSAPT0              -11.94316280 [mEh]      -7.49444780 [kcal/mol]     -31.35676961 [kJ/mol]
    Dispersion sSAPT0              -3.87076962 [mEh]      -2.42894461 [kcal/mol]     -10.16270424 [kJ/mol]
  Total sSAPT0                    -40.31998798 [mEh]     -25.30117444 [kcal/mol]    -105.86011387 [kJ/mol]
  --------------------------------------------------------------------------------------------------------

*** Psi4 exiting successfully. Buy a developer a beer!
