                               Psi4 1.9 release

  ==> Input File <==

--------------------------------------------------------------------------
MEMORY 60 GB

molecule dimer {
0 1
Cl     0.000000     0.000000     0.000000
K      0.000000     2.633546     0.000000
--
1 1
K      5.267092     0.000000     0.000000

units ang
no_reorient
no_com
symmetry c1
}

set {
basis        aug-cc-pVTZ
scf_type     df
}

energy("sapt2+")
--------------------------------------------------------------------------

  //              Dimer HF             //
    Molecular point group: c1
  Charge       = 1
  Multiplicity = 1
  Basis Set: AUG-CC-PVTZ
    Blend: AUG-CC-PVTZ
  Basis Set: (AUG-CC-PVTZ AUX)
    Blend: AUG-CC-PVTZ-JKFIT + DEF2-UNIVERSAL-JKFIT
  @DF-RHF Final Energy: -1657.79733072743215
    Total Energy =                      -1657.7973307274323815
 Dipole X            :       -179.4728128          189.1138658            9.6410530
 Dipole Y            :        -90.4365048           94.5569329            4.1204281
 Dipole Z            :         -0.0000000            0.0000000           -0.0000000
 Magnitude           :                                                   10.4846474
  //            Monomer A HF           //
    Molecular point group: c1
  Multiplicity = 1
  Basis Set: AUG-CC-PVTZ
    Blend: AUG-CC-PVTZ
  Basis Set: (AUG-CC-PVTZ AUX)
    Blend: AUG-CC-PVTZ-JKFIT + DEF2-UNIVERSAL-JKFIT
  @DF-RHF Final Energy: -1058.76870010471566
    Total Energy =                      -1058.7687001047156627
  //            Monomer B HF           //
    Molecular point group: c1

    Geometry (in Angstrom), charge = 1, multiplicity = 1:

       Center              X                  Y                   Z               Mass
    ------------   -----------------  -----------------  -----------------  -----------------
      Gh(CL)          0.000000000000     0.000000000000     0.000000000000    34.968852682000
      Gh(K)           0.000000000000     2.633546000000     0.000000000000    38.963706486400
         K            5.267092000000     0.000000000000     0.000000000000    38.963706486400

  Charge       = 1
  Multiplicity = 1
  Basis Set: AUG-CC-PVTZ
    Blend: AUG-CC-PVTZ
  Basis Set: (AUG-CC-PVTZ AUX)
    Blend: AUG-CC-PVTZ-JKFIT + DEF2-UNIVERSAL-JKFIT

    Orbital Energies [Eh]
    ---------------------

    Doubly Occupied:

       1A   -133.753896     2A    -14.709322     3A    -11.739386
       4A    -11.739383     5A    -11.739383     6A     -1.964420
       7A     -1.171002     8A     -1.170986     9A     -1.170985

  @DF-RHF Final Energy:  -599.01750647935614

   => Energetics <=

    Nuclear Repulsion Energy =              0.0000000000000000
    One-Electron Energy =                -819.7174888551822960
    Two-Electron Energy =                 220.6999823758261527
    Total Energy =                       -599.0175064793561432
 Dipole X            :       -179.1605523          189.1138658            9.9533135
 Dipole Y            :          0.0000223            0.0000000            0.0000223
 Dipole Z            :         -0.0000000            0.0000000           -0.0000000
 Magnitude           :                                                    9.9533135

    SAPT Results
  --------------------------------------------------------------------------------------------------------
    Electrostatics                 -9.47237026 [mEh]      -5.94400208 [kcal/mol]     -24.86970470 [kJ/mol]
      Elst10,r                     -9.50070377 [mEh]      -5.96178162 [kcal/mol]     -24.94409431 [kJ/mol]
      Elst12,r                      0.02833351 [mEh]       0.01777954 [kcal/mol]       0.07438961 [kJ/mol]

    Exchange                        0.02089905 [mEh]       0.01311435 [kcal/mol]       0.05487046 [kJ/mol]
      Exch10                        0.02099111 [mEh]       0.01317212 [kcal/mol]       0.05511216 [kJ/mol]
      Exch10(S^2)                   0.02099083 [mEh]       0.01317195 [kcal/mol]       0.05511143 [kJ/mol]
      Exch11(S^2)                   0.00013833 [mEh]       0.00008680 [kcal/mol]       0.00036318 [kJ/mol]
      Exch12(S^2)                  -0.00023039 [mEh]      -0.00014457 [kcal/mol]      -0.00060488 [kJ/mol]

    Induction                      -1.79218743 [mEh]      -1.12461459 [kcal/mol]      -4.70538745 [kJ/mol]
      Ind20,r                      -1.58962205 [mEh]      -0.99750290 [kcal/mol]      -4.17355211 [kJ/mol]
      Ind22                        -0.15196502 [mEh]      -0.09535949 [kcal/mol]      -0.39898410 [kJ/mol]
      Exch-Ind20,r                  0.04402060 [mEh]       0.02762335 [kcal/mol]       0.11557608 [kJ/mol]
      Exch-Ind22                    0.00420829 [mEh]       0.00264074 [kcal/mol]       0.01104887 [kJ/mol]
      delta HF,r (2)               -0.09882926 [mEh]      -0.06201630 [kcal/mol]      -0.25947618 [kJ/mol]

    Dispersion                     -0.09931034 [mEh]      -0.06231818 [kcal/mol]      -0.26073927 [kJ/mol]
      Disp20                       -0.11310829 [mEh]      -0.07097652 [kcal/mol]      -0.29696578 [kJ/mol]
      Disp21                        0.02748891 [mEh]       0.01724955 [kcal/mol]       0.07217212 [kJ/mol]
      Disp22 (SDQ)                 -0.00244103 [mEh]      -0.00153177 [kcal/mol]      -0.00640893 [kJ/mol]
      Disp22 (T)                   -0.01189425 [mEh]      -0.00746376 [kcal/mol]      -0.03122836 [kJ/mol]
      Est. Disp22 (T)              -0.01236628 [mEh]      -0.00775996 [kcal/mol]      -0.03246768 [kJ/mol]
      Exch-Disp20                   0.00111636 [mEh]       0.00070052 [kcal/mol]       0.00293099 [kJ/mol]

  Total HF                        -11.12414336 [mEh]      -6.98050535 [kcal/mol]     -29.20643437 [kJ/mol]
  Total SAPT0                     -11.23613530 [mEh]      -7.05078135 [kcal/mol]     -29.50046916 [kJ/mol]
  Total SAPT2                     -11.35565058 [mEh]      -7.12577832 [kcal/mol]     -29.81425648 [kJ/mol]
  Total SAPT2+                    -11.34296898 [mEh]      -7.11782050 [kcal/mol]     -29.78096097 [kJ/mol]

  Special recipe for scaled SAPT0 (see Manual):
    Electrostatics sSAPT0          -9.50070377 [mEh]      -5.96178162 [kcal/mol]     -24.94409431 [kJ/mol]
    Exchange sSAPT0                 0.02099111 [mEh]       0.01317212 [kcal/mol]       0.05511216 [kJ/mol]
    Induction sSAPT0               -1.64442894 [mEh]      -1.03189474 [kcal/mol]      -4.31744759 [kJ/mol]
    Dispersion sSAPT0              -0.11199189 [mEh]      -0.07027597 [kcal/mol]      -0.29403467 [kJ/mol]
  Total sSAPT0                    -11.23613349 [mEh]      -7.05078021 [kcal/mol]     -29.50046441 [kJ/mol]
  --------------------------------------------------------------------------------------------------------

*** Psi4 exiting successfully. Buy a developer a beer!
