                               Psi4 1.9 release

  ==> Input File <==

--------------------------------------------------------------------------
MEMORY 60 GB

molecule dimer {
0 1
Cl     0.000000     0.000000     0.000000
K      0.000000     2.633546     0.000000
--
1 1
K      2.633546     0.000000     0.000000

units ang
no_reorient
no_com
symmetry c1
}

set {
basis        aug-cc-pVTZ
scf_type     df
}

energy("sapt2+")
--------------------------------------------------------------------------

  //              Dimer HF             //
    Molecular point group: c1
  Charge       = 1
  Multiplicity = 1
  Basis Set: AUG-CC-PVTZ
    Blend: AUG-CC-PVTZ
  Basis Set: (AUG-CC-PVTZ AUX)
    Blend: AUG-CC-PVTZ-JKFIT + DEF2-UNIVERSAL-JKFIT
  @DF-RHF Final Energy: -1657.81745632795082
    Total Energy =                      -1657.8174563279508220
 Dipole X            :        -90.3548719           94.5569329            4.2020610
 Dipole Y            :        -90.3548719           94.5569329            4.2020610
 Dipole Z            :          0.0000000            0.0000000            0.0000000
 Magnitude           :                                                    5.9426117
  //            Monomer A HF           //
    Molecular point group: c1
  Multiplicity = 1
  Basis Set: AUG-CC-PVTZ
    Blend: AUG-CC-PVTZ
  Basis Set: (AUG-CC-PVTZ AUX)
    Blend: AUG-CC-PVTZ-JKFIT + DEF2-UNIVERSAL-JKFIT
  @DF-RHF Final Energy: -1058.76876817291713
    Total Energy =                      -1058.7687681729171345
  //            Monomer B HF           //
    Molecular point group: c1

    Geometry (in Angstrom), charge = 1, multiplicity = 1:

       Center              X                  Y                   Z               Mass
    ------------   -----------------  -----------------  -----------------  -----------------
      Gh(CL)          0.000000000000     0.000000000000     0.000000000000    34.968852682000
      Gh(K)           0.000000000000     2.633546000000     0.000000000000    38.963706486400
         K            2.633546000000     0.000000000000     0.000000000000    38.963706486400

  Charge       = 1
  Multiplicity = 1
  Basis Set: AUG-CC-PVTZ
    Blend: AUG-CC-PVTZ
  Basis Set: (AUG-CC-PVTZ AUX)
    Blend: AUG-CC-PVTZ-JKFIT + DEF2-UNIVERSAL-JKFIT

    Orbital Energies [Eh]
    ---------------------

    Doubly Occupied:

       1A   -133.753437     2A    -14.708954     3A    -11.739022
       4A    -11.739016     5A    -11.739014     6A     -1.964239
       7A     -1.170901     8A     -1.170854     9A     -1.170833

  @DF-RHF Final Energy:  -599.01750974761705

   => Energetics <=

    Nuclear Repulsion Energy =              0.0000000000000000
    One-Electron Energy =                -819.7224841064190741
    Two-Electron Energy =                 220.7049743588020192
    Total Energy =                       -599.0175097476170549
 Dipole X            :        -89.5807123           94.5569329            4.9762206
 Dipole Y            :          0.0000846            0.0000000            0.0000846
 Dipole Z            :          0.0000000            0.0000000            0.0000000
 Magnitude           :                                                    4.9762206

    SAPT Results
  --------------------------------------------------------------------------------------------------------
    Electrostatics                -71.48624595 [mEh]     -44.85829658 [kcal/mol]    -187.68711289 [kJ/mol]
      Elst10,r                    -70.46960091 [mEh]     -44.22034219 [kcal/mol]    -185.01791171 [kJ/mol]
      Elst12,r                     -1.01664504 [mEh]      -0.63795439 [kcal/mol]      -2.66920118 [kJ/mol]

    Exchange                       59.85066503 [mEh]      37.55685932 [kcal/mol]     157.13789938 [kJ/mol]
      Exch10                       58.05135416 [mEh]      36.42777470 [kcal/mol]     152.41380934 [kJ/mol]
      Exch10(S^2)                  56.64638113 [mEh]      35.54614081 [kcal/mol]     148.72505317 [kJ/mol]
      Exch11(S^2)                  -0.32650958 [mEh]      -0.20488785 [kcal/mol]      -0.85725077 [kJ/mol]
      Exch12(S^2)                   2.12582045 [mEh]       1.33397247 [kcal/mol]       5.58134082 [kJ/mol]

    Induction                     -20.56205751 [mEh]     -12.90288589 [kcal/mol]     -53.98567457 [kJ/mol]
      Ind20,r                    -116.38135851 [mEh]     -73.03040503 [kcal/mol]    -305.55921466 [kJ/mol]
      Ind22                       -10.48151060 [mEh]      -6.57724720 [kcal/mol]     -27.51920228 [kJ/mol]
      Exch-Ind20,r                 96.37401303 [mEh]      60.47560620 [kcal/mol]     253.02993634 [kJ/mol]
      Exch-Ind22                    8.67961374 [mEh]       5.44653985 [kcal/mol]      22.78832275 [kJ/mol]
      delta HF,r (2)                1.24718482 [mEh]       0.78262029 [kcal/mol]       3.27448329 [kJ/mol]

    Dispersion                     -5.73611420 [mEh]      -3.59946600 [kcal/mol]     -15.06016576 [kJ/mol]
      Disp20                       -8.53172270 [mEh]      -5.35373682 [kcal/mol]     -22.40003487 [kJ/mol]
      Disp21                        1.51536666 [mEh]       0.95090694 [kcal/mol]       3.97859463 [kJ/mol]
      Disp22 (SDQ)                  0.03834894 [mEh]       0.02406432 [kcal/mol]       0.10068513 [kJ/mol]
      Disp22 (T)                   -0.77501021 [mEh]      -0.48632625 [kcal/mol]      -2.03478903 [kJ/mol]
      Est. Disp22 (T)              -0.83163794 [mEh]      -0.52186069 [kcal/mol]      -2.18346511 [kJ/mol]
      Exch-Disp20                   2.07353084 [mEh]       1.30116025 [kcal/mol]       5.44405447 [kJ/mol]

  Total HF                        -31.17840742 [mEh]     -19.56474603 [kcal/mol]     -81.85889739 [kJ/mol]
  Total SAPT0                     -37.63659928 [mEh]     -23.61732261 [kcal/mol]     -98.81487779 [kJ/mol]
  Total SAPT2                     -38.65583030 [mEh]     -24.25689973 [kcal/mol]    -101.49086847 [kJ/mol]
  Total SAPT2+                    -37.93375264 [mEh]     -23.80378915 [kcal/mol]     -99.59505382 [kJ/mol]

  Special recipe for scaled SAPT0 (see Manual):
    Electrostatics sSAPT0         -70.46960091 [mEh]     -44.22034219 [kcal/mol]    -185.01791171 [kJ/mol]
    Exchange sSAPT0                58.05135416 [mEh]      36.42777470 [kcal/mol]     152.41380934 [kJ/mol]
    Induction sSAPT0              -11.40987717 [mEh]      -7.15980602 [kcal/mol]     -29.95662838 [kJ/mol]
    Dispersion sSAPT0              -6.30004716 [mEh]      -3.95333928 [kcal/mol]     -16.54077154 [kJ/mol]
  Total sSAPT0                    -30.12817109 [mEh]     -18.90571278 [kcal/mol]     -79.10150229 [kJ/mol]
  --------------------------------------------------------------------------------------------------------

*** Psi4 exiting successfully. Buy a developer a beer!
