                               Psi4 1.9 release

  ==> Input File <==

--------------------------------------------------------------------------
MEMORY 60 GB

molecule dimer {
0 1
Cl     0.000000     0.000000     0.000000
K      0.000000     2.633546     0.000000
--
1 1
K      3.160255     0.000000     0.000000

units ang
no_reorient
no_com
symmetry c1
}

set {
basis        aug-cc-pVTZ
scf_type     df
}

energy("sapt2+")
--------------------------------------------------------------------------

  //              Dimer HF             //
    Molecular point group: c1
  Charge       = 1
  Multiplicity = 1
  Basis Set: AUG-CC-PVTZ
    Blend: AUG-CC-PVTZ
  Basis Set: (AUG-CC-PVTZ AUX)
    Blend: AUG-CC-PVTZ-JKFIT + DEF2-UNIVERSAL-JKFIT
  @DF-RHF Final Energy: -1657.82333412433923
    Total Energy =                      -1657.8233341243392260
 Dipole X            :       -108.1967616          113.4683123            5.2715507
 Dipole Y            :        -90.3882066           94.5569329            4.1687263
 Dipole Z            :         -0.0000000            0.0000000           -0.0000000
 Magnitude           :                                                    6.7206790
  //            Monomer A HF           //
    Molecular point group: c1
  Multiplicity = 1
  Basis Set: AUG-CC-PVTZ
    Blend: AUG-CC-PVTZ
  Basis Set: (AUG-CC-PVTZ AUX)
    Blend: AUG-CC-PVTZ-JKFIT + DEF2-UNIVERSAL-JKFIT
  @DF-RHF Final Energy: -1058.76875863336500
    Total Energy =                      -1058.7687586333649961
  //            Monomer B HF           //
    Molecular point group: c1

    Geometry (in Angstrom), charge = 1, multiplicity = 1:

       Center              X                  Y                   Z               Mass
    ------------   -----------------  -----------------  -----------------  -----------------
      Gh(CL)          0.000000000000     0.000000000000     0.000000000000    34.968852682000
      Gh(K)           0.000000000000     2.633546000000     0.000000000000    38.963706486400
         K            3.160255000000     0.000000000000     0.000000000000    38.963706486400

  Charge       = 1
  Multiplicity = 1
  Basis Set: AUG-CC-PVTZ
    Blend: AUG-CC-PVTZ
  Basis Set: (AUG-CC-PVTZ AUX)
    Blend: AUG-CC-PVTZ-JKFIT + DEF2-UNIVERSAL-JKFIT

    Orbital Energies [Eh]
    ---------------------

    Doubly Occupied:

       1A   -133.753566     2A    -14.709057     3A    -11.739122
       4A    -11.739118     5A    -11.739117     6A     -1.964299
       7A     -1.170927     8A     -1.170888     9A     -1.170878

  @DF-RHF Final Energy:  -599.01750855169007

   => Energetics <=

    Nuclear Repulsion Energy =              0.0000000000000000
    One-Electron Energy =                -819.7210744120421850
    Two-Electron Energy =                 220.7035658603520005
    Total Energy =                       -599.0175085516901845
 Dipole X            :       -107.4966605          113.4683123            5.9716518
 Dipole Y            :          0.0001450            0.0000000            0.0001450
 Dipole Z            :          0.0000000            0.0000000            0.0000000
 Magnitude           :                                                    5.9716518

    SAPT Results
  --------------------------------------------------------------------------------------------------------
    Electrostatics                -38.50764571 [mEh]     -24.16391249 [kcal/mol]    -101.10180987 [kJ/mol]
      Elst10,r                    -38.24544681 [mEh]     -23.99938020 [kcal/mol]    -100.41340677 [kJ/mol]
      Elst12,r                     -0.26219890 [mEh]      -0.16453229 [kcal/mol]      -0.68840311 [kJ/mol]

    Exchange                       12.38068777 [mEh]       7.76899887 [kcal/mol]      32.50549125 [kJ/mol]
      Exch10                       11.52573323 [mEh]       7.23250679 [kcal/mol]      30.26080842 [kJ/mol]
      Exch10(S^2)                  11.46058872 [mEh]       7.19162800 [kcal/mol]      30.08977154 [kJ/mol]
      Exch11(S^2)                   0.02479309 [mEh]       0.01555790 [kcal/mol]       0.06509426 [kJ/mol]
      Exch12(S^2)                   0.83016144 [mEh]       0.52093417 [kcal/mol]       2.17958857 [kJ/mol]

    Induction                     -11.47441903 [mEh]      -7.20030665 [kcal/mol]     -30.12608301 [kJ/mol]
      Ind20,r                     -30.90946802 [mEh]     -19.39598401 [kcal/mol]     -81.15279712 [kJ/mol]
      Ind22                        -3.37751012 [mEh]      -2.11941960 [kcal/mol]      -8.86765159 [kJ/mol]
      Exch-Ind20,r                 20.59389684 [mEh]      12.92286537 [kcal/mol]      54.06926870 [kJ/mol]
      Exch-Ind22                    2.25031679 [mEh]       1.41209511 [kcal/mol]       5.90820592 [kJ/mol]
      delta HF,r (2)               -0.03165452 [mEh]      -0.01986351 [kcal/mol]      -0.08310892 [kJ/mol]

    Dispersion                     -2.21333719 [mEh]      -1.38889005 [kcal/mol]      -5.81111598 [kJ/mol]
      Disp20                       -2.90854839 [mEh]      -1.82514167 [kcal/mol]      -7.63639275 [kJ/mol]
      Disp21                        0.53671940 [mEh]       0.33679651 [kcal/mol]       1.40915659 [kJ/mol]
      Disp22 (SDQ)                 -0.00916006 [mEh]      -0.00574802 [kcal/mol]      -0.02404973 [kJ/mol]
      Disp22 (T)                   -0.27940557 [mEh]      -0.17532964 [kcal/mol]      -0.73357922 [kJ/mol]
      Est. Disp22 (T)              -0.30372038 [mEh]      -0.19058741 [kcal/mol]      -0.79741774 [kJ/mol]
      Exch-Disp20                   0.47137224 [mEh]       0.29579055 [kcal/mol]       1.23758765 [kJ/mol]

  Total HF                        -37.06693928 [mEh]     -23.25985556 [kcal/mol]     -97.31923568 [kJ/mol]
  Total SAPT0                     -39.50411544 [mEh]     -24.78920669 [kcal/mol]    -103.71804079 [kJ/mol]
  Total SAPT2                     -40.03855312 [mEh]     -25.12457140 [kcal/mol]    -105.12120673 [kJ/mol]
  Total SAPT2+                    -39.81471415 [mEh]     -24.98411033 [kcal/mol]    -104.53351761 [kJ/mol]

  Special recipe for scaled SAPT0 (see Manual):
    Electrostatics sSAPT0         -38.24544681 [mEh]     -23.99938020 [kcal/mol]    -100.41340677 [kJ/mol]
    Exchange sSAPT0                11.52573323 [mEh]       7.23250679 [kcal/mol]      30.26080842 [kJ/mol]
    Induction sSAPT0               -9.99404501 [mEh]      -6.27135792 [kcal/mol]     -26.23936155 [kJ/mol]
    Dispersion sSAPT0              -2.42909222 [mEh]      -1.52427838 [kcal/mol]      -6.37758076 [kJ/mol]
  Total sSAPT0                    -39.14285081 [mEh]     -24.56250972 [kcal/mol]    -102.76954065 [kJ/mol]
  --------------------------------------------------------------------------------------------------------

*** Psi4 exiting successfully. Buy a developer a beer!
