                               Psi4 1.9 release

  ==> Input File <==

--------------------------------------------------------------------------
MEMORY 60 GB

molecule dimer {
0 1
K      0.000000     0.000000     0.000000
Cl     0.000000     2.633546     0.000000
--
-1 1
Cl     3.950319     0.000000     0.000000

units ang
no_reorient
no_com
symmetry c1
}

set {
basis        aug-cc-pVTZ
scf_type     df
}

energy("sapt2+")
--------------------------------------------------------------------------

  //              Dimer HF             //
    Molecular point group: c1
  Charge       = -1
  Multiplicity = 1
  Basis Set: AUG-CC-PVTZ
    Blend: AUG-CC-PVTZ
  Basis Set: (AUG-CC-PVTZ AUX)
    Blend: AUG-CC-PVTZ-JKFIT + DEF2-UNIVERSAL-JKFIT
  @DF-RHF Final Energy: -1518.36381717873701
    Total Energy =                      -1518.3638171787367810
 Dipole X            :       -133.8358843          126.9053573           -6.9305270
 Dipole Y            :        -88.7234862           84.6035715           -4.1199146
 Dipole Z            :          0.0000000            0.0000000            0.0000000
 Magnitude           :                                                    8.0626237
  //            Monomer A HF           //
    Molecular point group: c1
  Multiplicity = 1
  Basis Set: AUG-CC-PVTZ
    Blend: AUG-CC-PVTZ
  Basis Set: (AUG-CC-PVTZ AUX)
    Blend: AUG-CC-PVTZ-JKFIT + DEF2-UNIVERSAL-JKFIT
  @DF-RHF Final Energy: -1058.76870633409044
    Total Energy =                      -1058.7687063340904388
  //            Monomer B HF           //
    Molecular point group: c1

    Geometry (in Angstrom), charge = -1, multiplicity = 1:

       Center              X                  Y                   Z               Mass
    ------------   -----------------  -----------------  -----------------  -----------------
      Gh(K)           0.000000000000     0.000000000000     0.000000000000    38.963706486400
      Gh(CL)          0.000000000000     2.633546000000     0.000000000000    34.968852682000
         CL           3.950319000000     0.000000000000     0.000000000000    34.968852682000

  Charge       = -1
  Multiplicity = 1
  Basis Set: AUG-CC-PVTZ
    Blend: AUG-CC-PVTZ
  Basis Set: (AUG-CC-PVTZ AUX)
    Blend: AUG-CC-PVTZ-JKFIT + DEF2-UNIVERSAL-JKFIT

    Orbital Energies [Eh]
    ---------------------

    Doubly Occupied:

       1A   -104.506136     2A    -10.229788     3A     -7.695829
       4A     -7.695828     5A     -7.695819     6A     -0.733511
       7A     -0.150339     8A     -0.150336     9A     -0.150334

  @DF-RHF Final Energy:  -459.57349190272657

   => Energetics <=

    Nuclear Repulsion Energy =              0.0000000000000000
    One-Electron Energy =                -641.1311431271294623
    Two-Electron Energy =                 181.5576512244029175
    Total Energy =                       -459.5734919027265732
 Dipole X            :       -134.3707462          126.9053573           -7.4653889
 Dipole Y            :         -0.0001185            0.0000000           -0.0001185
 Dipole Z            :         -0.0000000            0.0000000           -0.0000000
 Magnitude           :                                                    7.4653889

    SAPT Results
  --------------------------------------------------------------------------------------------------------
    Electrostatics                -19.03162903 [mEh]     -11.94252752 [kcal/mol]     -49.96753512 [kJ/mol]
      Elst10,r                    -19.04000083 [mEh]     -11.94778090 [kcal/mol]     -49.98951528 [kJ/mol]
      Elst12,r                      0.00837180 [mEh]       0.00525338 [kcal/mol]       0.02198016 [kJ/mol]

    Exchange                        2.12767209 [mEh]       1.33513439 [kcal/mol]       5.58620229 [kJ/mol]
      Exch10                        1.76896068 [mEh]       1.11003959 [kcal/mol]       4.64440563 [kJ/mol]
      Exch10(S^2)                   1.76666934 [mEh]       1.10860175 [kcal/mol]       4.63838972 [kJ/mol]
      Exch11(S^2)                   0.04561244 [mEh]       0.02862224 [kcal/mol]       0.11975545 [kJ/mol]
      Exch12(S^2)                   0.31309896 [mEh]       0.19647257 [kcal/mol]       0.82204121 [kJ/mol]

    Induction                      -4.98452159 [mEh]      -3.12783452 [kcal/mol]     -13.08685964 [kJ/mol]
      Ind20,r                      -8.15476569 [mEh]      -5.11719273 [kcal/mol]     -21.41033438 [kJ/mol]
      Ind22                        -1.20655378 [mEh]      -0.75712393 [kcal/mol]      -3.16780650 [kJ/mol]
      Exch-Ind20,r                  3.85202715 [mEh]       2.41718353 [kcal/mol]      10.11349588 [kJ/mol]
      Exch-Ind22                    0.56993396 [mEh]       0.35763896 [kcal/mol]       1.49636141 [kJ/mol]
      delta HF,r (2)               -0.04516323 [mEh]      -0.02834035 [kcal/mol]      -0.11857604 [kJ/mol]

    Dispersion                     -1.49895398 [mEh]      -0.94060783 [kcal/mol]      -3.93550314 [kJ/mol]
      Disp20                       -1.66930457 [mEh]      -1.04750444 [kcal/mol]      -4.38275856 [kJ/mol]
      Disp21                        0.28326078 [mEh]       0.17774882 [kcal/mol]       0.74370108 [kJ/mol]
      Disp22 (SDQ)                 -0.03917469 [mEh]      -0.02458249 [kcal/mol]      -0.10285314 [kJ/mol]
      Disp22 (T)                   -0.25985492 [mEh]      -0.16306143 [kcal/mol]      -0.68224901 [kJ/mol]
      Est. Disp22 (T)              -0.28955034 [mEh]      -0.18169558 [kcal/mol]      -0.76021431 [kJ/mol]
      Exch-Disp20                   0.21581484 [mEh]       0.13542586 [kcal/mol]       0.56662178 [kJ/mol]

  Total HF                        -21.61894192 [mEh]     -13.56609087 [kcal/mol]     -56.76052419 [kJ/mol]
  Total SAPT0                     -23.07243165 [mEh]     -14.47816945 [kcal/mol]     -60.57666096 [kJ/mol]
  Total SAPT2                     -23.34196827 [mEh]     -14.64730622 [kcal/mol]     -61.28432924 [kJ/mol]
  Total SAPT2+                    -23.38743251 [mEh]     -14.67583547 [kcal/mol]     -61.40369561 [kJ/mol]

  Special recipe for scaled SAPT0 (see Manual):
    Electrostatics sSAPT0         -19.04000083 [mEh]     -11.94778090 [kcal/mol]     -49.98951528 [kJ/mol]
    Exchange sSAPT0                 1.76896068 [mEh]       1.11003959 [kcal/mol]       4.64440563 [kJ/mol]
    Induction sSAPT0               -4.33289429 [mEh]      -2.71893222 [kcal/mol]     -11.37601240 [kJ/mol]
    Dispersion sSAPT0              -1.45264892 [mEh]      -0.91155096 [kcal/mol]      -3.81392922 [kJ/mol]
  Total sSAPT0                    -23.05658336 [mEh]     -14.46822449 [kcal/mol]     -60.53505127 [kJ/mol]
  --------------------------------------------------------------------------------------------------------

*** Psi4 exiting successfully. Buy a developer a beer!
