                               Psi4 1.9 release

  ==> Input File <==

--------------------------------------------------------------------------
MEMORY 60 GB

molecule dimer {
0 1
K      0.000000     0.000000     0.000000
Cl     0.000000     2.633546     0.000000
--
-1 1
Cl     3.686964     0.000000     0.000000

units ang
no_reorient
no_com
symmetry c1
}

set {
basis        aug-cc-pVTZ
scf_type     df
}

energy("sapt2+")
--------------------------------------------------------------------------

  //              Dimer HF             //
    Molecular point group: c1
  Charge       = -1
  Multiplicity = 1
  Basis Set: AUG-CC-PVTZ
    Blend: AUG-CC-PVTZ
  Basis Set: (AUG-CC-PVTZ AUX)
    Blend: AUG-CC-PVTZ-JKFIT + DEF2-UNIVERSAL-JKFIT
  @DF-RHF Final Energy: -1518.36756931643708
    Total Energy =                      -1518.3675693164373115
 Dipole X            :       -124.8203201          118.4449873           -6.3753328
 Dipole Y            :        -88.7305948           84.6035715           -4.1270232
 Dipole Z            :          0.0000000            0.0000000            0.0000000
 Magnitude           :                                                    7.5945500
  //            Monomer A HF           //
    Molecular point group: c1
  Multiplicity = 1
  Basis Set: AUG-CC-PVTZ
    Blend: AUG-CC-PVTZ
  Basis Set: (AUG-CC-PVTZ AUX)
    Blend: AUG-CC-PVTZ-JKFIT + DEF2-UNIVERSAL-JKFIT
  @DF-RHF Final Energy: -1058.76871142395589
    Total Energy =                      -1058.7687114239561197
  //            Monomer B HF           //
    Molecular point group: c1

    Geometry (in Angstrom), charge = -1, multiplicity = 1:

       Center              X                  Y                   Z               Mass
    ------------   -----------------  -----------------  -----------------  -----------------
      Gh(K)           0.000000000000     0.000000000000     0.000000000000    38.963706486400
      Gh(CL)          0.000000000000     2.633546000000     0.000000000000    34.968852682000
         CL           3.686964000000     0.000000000000     0.000000000000    34.968852682000

  Charge       = -1
  Multiplicity = 1
  Basis Set: AUG-CC-PVTZ
    Blend: AUG-CC-PVTZ
  Basis Set: (AUG-CC-PVTZ AUX)
    Blend: AUG-CC-PVTZ-JKFIT + DEF2-UNIVERSAL-JKFIT

    Orbital Energies [Eh]
    ---------------------

    Doubly Occupied:

       1A   -104.506176     2A    -10.229798     3A     -7.695841
       4A     -7.695840     5A     -7.695826     6A     -0.733509
       7A     -0.150339     8A     -0.150334     9A     -0.150333

  @DF-RHF Final Energy:  -459.57349456934685

   => Energetics <=

    Nuclear Repulsion Energy =              0.0000000000000000
    One-Electron Energy =                -641.1309951216574063
    Two-Electron Energy =                 181.5575005523105006
    Total Energy =                       -459.5734945693469058
 Dipole X            :       -125.4127964          118.4449873           -6.9678091
 Dipole Y            :         -0.0000925            0.0000000           -0.0000925
 Dipole Z            :          0.0000000            0.0000000            0.0000000
 Magnitude           :                                                    6.9678091

    SAPT Results
  --------------------------------------------------------------------------------------------------------
    Electrostatics                -23.45415106 [mEh]     -14.71770199 [kcal/mol]     -61.57886512 [kJ/mol]
      Elst10,r                    -23.32487446 [mEh]     -14.63657970 [kcal/mol]     -61.23944946 [kJ/mol]
      Elst12,r                     -0.12927660 [mEh]      -0.08112229 [kcal/mol]      -0.33941565 [kJ/mol]

    Exchange                        4.15763459 [mEh]       2.60895509 [kcal/mol]      10.91586811 [kJ/mol]
      Exch10                        3.54139609 [mEh]       2.22225960 [kcal/mol]       9.29793416 [kJ/mol]
      Exch10(S^2)                   3.53308104 [mEh]       2.21704183 [kcal/mol]       9.27610300 [kJ/mol]
      Exch11(S^2)                   0.08004913 [mEh]       0.05023159 [kcal/mol]       0.21016896 [kJ/mol]
      Exch12(S^2)                   0.53618937 [mEh]       0.33646391 [kcal/mol]       1.40776499 [kJ/mol]

    Induction                      -6.39648689 [mEh]      -4.01385612 [kcal/mol]     -16.79397402 [kJ/mol]
      Ind20,r                     -13.04170353 [mEh]      -8.18379252 [kcal/mol]     -34.24098791 [kJ/mol]
      Ind22                        -1.94521428 [mEh]      -1.22064039 [kcal/mol]      -5.10715940 [kJ/mol]
      Exch-Ind20,r                  7.56652036 [mEh]       4.74806321 [kcal/mol]      19.86589646 [kJ/mol]
      Exch-Ind22                    1.12857216 [mEh]       0.70818972 [kcal/mol]       2.96306579 [kJ/mol]
      delta HF,r (2)               -0.10466159 [mEh]      -0.06567614 [kcal/mol]      -0.27478896 [kJ/mol]

    Dispersion                     -2.08904600 [mEh]      -1.31089616 [kcal/mol]      -5.48478952 [kJ/mol]
      Disp20                       -2.42645841 [mEh]      -1.52262564 [kcal/mol]      -6.37066568 [kJ/mol]
      Disp21                        0.41192050 [mEh]       0.25848402 [kcal/mol]       1.08149713 [kJ/mol]
      Disp22 (SDQ)                 -0.05024164 [mEh]      -0.03152711 [kcal/mol]      -0.13190942 [kJ/mol]
      Disp22 (T)                   -0.36212552 [mEh]      -0.22723720 [kcal/mol]      -0.95076042 [kJ/mol]
      Est. Disp22 (T)              -0.40704661 [mEh]      -0.25542560 [kcal/mol]      -1.06870072 [kJ/mol]
      Exch-Disp20                   0.38278016 [mEh]       0.24019818 [kcal/mol]       1.00498918 [kJ/mol]

  Total HF                        -25.36332313 [mEh]     -15.91572555 [kcal/mol]     -66.59139571 [kJ/mol]
  Total SAPT0                     -27.40700138 [mEh]     -17.19815302 [kcal/mol]     -71.95707222 [kJ/mol]
  Total SAPT2                     -27.73668161 [mEh]     -17.40503048 [kcal/mol]     -72.82264754 [kJ/mol]
  Total SAPT2+                    -27.78204936 [mEh]     -17.43349918 [kcal/mol]     -72.94176055 [kJ/mol]

  Special recipe for scaled SAPT0 (see Manual):
    Electrostatics sSAPT0         -23.32487446 [mEh]     -14.63657970 [kcal/mol]     -61.23944946 [kJ/mol]
    Exchange sSAPT0                 3.54139609 [mEh]       2.22225960 [kcal/mol]       9.29793416 [kJ/mol]
    Induction sSAPT0               -5.52629590 [mEh]      -3.46780303 [kcal/mol]     -14.50928789 [kJ/mol]
    Dispersion sSAPT0              -2.04096929 [mEh]      -1.28072756 [kcal/mol]      -5.35856412 [kJ/mol]
  Total sSAPT0                    -27.35074356 [mEh]     -17.16285070 [kcal/mol]     -71.80936732 [kJ/mol]
  --------------------------------------------------------------------------------------------------------

*** Psi4 exiting successfully. Buy a developer a beer!
