                               Psi4 1.9 release

  ==> Input File <==

--------------------------------------------------------------------------
MEMORY 60 GB

molecule dimer {
0 1
K      0.000000     0.000000     0.000000
Cl     0.000000     2.633546     0.000000
--
-1 1
Cl     2.633546     0.000000     0.000000

units ang
no_reorient
no_com
symmetry c1
}

set {
basis        aug-cc-pVTZ
scf_type     df
}

energy("sapt2+")
--------------------------------------------------------------------------

  //              Dimer HF             //
    Molecular point group: c1
  Charge       = -1
  Multiplicity = 1
  Basis Set: AUG-CC-PVTZ
    Blend: AUG-CC-PVTZ
  Basis Set: (AUG-CC-PVTZ AUX)
    Blend: AUG-CC-PVTZ-JKFIT + DEF2-UNIVERSAL-JKFIT
  @DF-RHF Final Energy: -1518.36891072299250
    Total Energy =                      -1518.3689107229924957
 Dipole X            :        -88.7928263           84.6035715           -4.1892548
 Dipole Y            :        -88.7928263           84.6035715           -4.1892548
 Dipole Z            :          0.0000000            0.0000000            0.0000000
 Magnitude           :                                                    5.9245009
  //            Monomer A HF           //
    Molecular point group: c1
  Multiplicity = 1
  Basis Set: AUG-CC-PVTZ
    Blend: AUG-CC-PVTZ
  Basis Set: (AUG-CC-PVTZ AUX)
    Blend: AUG-CC-PVTZ-JKFIT + DEF2-UNIVERSAL-JKFIT
  @DF-RHF Final Energy: -1058.76876483269757
    Total Energy =                      -1058.7687648326975705
  //            Monomer B HF           //
    Molecular point group: c1

    Geometry (in Angstrom), charge = -1, multiplicity = 1:

       Center              X                  Y                   Z               Mass
    ------------   -----------------  -----------------  -----------------  -----------------
      Gh(K)           0.000000000000     0.000000000000     0.000000000000    38.963706486400
      Gh(CL)          0.000000000000     2.633546000000     0.000000000000    34.968852682000
         CL           2.633546000000     0.000000000000     0.000000000000    34.968852682000

  Charge       = -1
  Multiplicity = 1
  Basis Set: AUG-CC-PVTZ
    Blend: AUG-CC-PVTZ
  Basis Set: (AUG-CC-PVTZ AUX)
    Blend: AUG-CC-PVTZ-JKFIT + DEF2-UNIVERSAL-JKFIT

    Orbital Energies [Eh]
    ---------------------

    Doubly Occupied:

       1A   -104.506323     2A    -10.229834     3A     -7.695882
       4A     -7.695877     5A     -7.695864     6A     -0.733503
       7A     -0.150335     8A     -0.150329     9A     -0.150328

  @DF-RHF Final Energy:  -459.57350339120131

   => Energetics <=

    Nuclear Repulsion Energy =              0.0000000000000000
    One-Electron Energy =                -641.1304535549413686
    Two-Electron Energy =                 181.5569501637400549
    Total Energy =                       -459.5735033912013137
 Dipole X            :        -89.5810574           84.6035715           -4.9774858
 Dipole Y            :         -0.0000216            0.0000000           -0.0000216
 Dipole Z            :          0.0000000            0.0000000            0.0000000
 Magnitude           :                                                    4.9774858

    SAPT Results
  --------------------------------------------------------------------------------------------------------
    Electrostatics                -76.11386439 [mEh]     -47.76217099 [kcal/mol]    -199.83692342 [kJ/mol]
      Elst10,r                    -73.75766754 [mEh]     -46.28363515 [kcal/mol]    -193.65072945 [kJ/mol]
      Elst12,r                     -2.35619685 [mEh]      -1.47853584 [kcal/mol]      -6.18619397 [kJ/mol]

    Exchange                       68.50478522 [mEh]      42.98740173 [kcal/mol]     179.85928883 [kJ/mol]
      Exch10                       65.10968294 [mEh]      40.85694288 [kcal/mol]     170.94544901 [kJ/mol]
      Exch10(S^2)                  63.27444880 [mEh]      39.70531607 [kcal/mol]     166.12704245 [kJ/mol]
      Exch11(S^2)                   0.01963167 [mEh]       0.01231906 [kcal/mol]       0.05154294 [kJ/mol]
      Exch12(S^2)                   3.37547061 [mEh]       2.11813979 [kcal/mol]       8.86229688 [kJ/mol]

    Induction                     -20.11063416 [mEh]     -12.61961346 [kcal/mol]     -52.80046270 [kJ/mol]
      Ind20,r                    -137.91612702 [mEh]     -86.54367629 [kcal/mol]    -362.09874161 [kJ/mol]
      Ind22                       -14.93031092 [mEh]      -9.36891155 [kcal/mol]     -39.19952592 [kJ/mol]
      Exch-Ind20,r                118.36884300 [mEh]      74.27757038 [kcal/mol]     310.77735447 [kJ/mol]
      Exch-Ind22                   12.81419126 [mEh]       8.04102641 [kcal/mol]      33.64365451 [kJ/mol]
      delta HF,r (2)                1.55276953 [mEh]       0.97437759 [kcal/mol]       4.07679585 [kJ/mol]

    Dispersion                     -8.99986617 [mEh]      -5.64750129 [kcal/mol]     -23.62914538 [kJ/mol]
      Disp20                      -13.37132741 [mEh]      -8.39063462 [kcal/mol]     -35.10641527 [kJ/mol]
      Disp21                        2.36759965 [mEh]       1.48569121 [kcal/mol]       6.21613202 [kJ/mol]
      Disp22 (SDQ)                 -0.06838523 [mEh]      -0.04291238 [kcal/mol]      -0.17954540 [kJ/mol]
      Disp22 (T)                   -1.64165566 [mEh]      -1.03015448 [kcal/mol]      -4.31016633 [kJ/mol]
      Est. Disp22 (T)              -1.80040174 [mEh]      -1.12976915 [kcal/mol]      -4.72695411 [kJ/mol]
      Exch-Disp20                   3.87264856 [mEh]       2.43012366 [kcal/mol]      10.16763739 [kJ/mol]

  Total HF                        -26.64249909 [mEh]     -16.71842059 [kcal/mol]     -69.94987173 [kJ/mol]
  Total SAPT0                     -36.14117794 [mEh]     -22.67893155 [kcal/mol]     -94.88864962 [kJ/mol]
  Total SAPT2                     -37.21839217 [mEh]     -23.35489368 [kcal/mol]     -97.71687518 [kJ/mol]
  Total SAPT2+                    -36.71957949 [mEh]     -23.04188400 [kcal/mol]     -96.40724267 [kJ/mol]

  Special recipe for scaled SAPT0 (see Manual):
    Electrostatics sSAPT0         -73.75766754 [mEh]     -46.28363515 [kcal/mol]    -193.65072945 [kJ/mol]
    Exchange sSAPT0                65.10968294 [mEh]      40.85694288 [kcal/mol]     170.94544901 [kJ/mol]
    Induction sSAPT0               -7.39325879 [mEh]      -4.63933993 [kcal/mol]     -19.41099828 [kJ/mol]
    Dispersion sSAPT0              -9.15183979 [mEh]      -5.74286617 [kcal/mol]     -24.02815207 [kJ/mol]
  Total sSAPT0                    -25.19308319 [mEh]     -15.80889837 [kcal/mol]     -66.14443079 [kJ/mol]
  --------------------------------------------------------------------------------------------------------

*** Psi4 exiting successfully. Buy a developer a beer!
