                               Psi4 1.9 release

  ==> Input File <==

--------------------------------------------------------------------------
MEMORY 60 GB

molecule dimer {
0 1
K      0.000000     0.000000     0.000000
Cl     0.000000     2.633546     0.000000
--
-1 1
Cl     3.423610     0.000000     0.000000

units ang
no_reorient
no_com
symmetry c1
}

set {
basis        aug-cc-pVTZ
scf_type     df
}

energy("sapt2+")
--------------------------------------------------------------------------

  //              Dimer HF             //
    Molecular point group: c1
  Charge       = -1
  Multiplicity = 1
  Basis Set: AUG-CC-PVTZ
    Blend: AUG-CC-PVTZ
  Basis Set: (AUG-CC-PVTZ AUX)
    Blend: AUG-CC-PVTZ-JKFIT + DEF2-UNIVERSAL-JKFIT
  @DF-RHF Final Energy: -1518.37152781818145
    Total Energy =                      -1518.3715278181812209
 Dipole X            :       -115.8053370          109.9846494           -5.8206876
 Dipole Y            :        -88.7407071           84.6035715           -4.1371355
 Dipole Z            :          0.0000000            0.0000000            0.0000000
 Magnitude           :                                                    7.1411690
  //            Monomer A HF           //
    Molecular point group: c1
  Multiplicity = 1
  Basis Set: AUG-CC-PVTZ
    Blend: AUG-CC-PVTZ
  Basis Set: (AUG-CC-PVTZ AUX)
    Blend: AUG-CC-PVTZ-JKFIT + DEF2-UNIVERSAL-JKFIT
  @DF-RHF Final Energy: -1058.76871535600458
    Total Energy =                      -1058.7687153560045772
  //            Monomer B HF           //
    Molecular point group: c1

    Geometry (in Angstrom), charge = -1, multiplicity = 1:

       Center              X                  Y                   Z               Mass
    ------------   -----------------  -----------------  -----------------  -----------------
      Gh(K)           0.000000000000     0.000000000000     0.000000000000    38.963706486400
      Gh(CL)          0.000000000000     2.633546000000     0.000000000000    34.968852682000
         CL           3.423610000000     0.000000000000     0.000000000000    34.968852682000

  Charge       = -1
  Multiplicity = 1
  Basis Set: AUG-CC-PVTZ
    Blend: AUG-CC-PVTZ
  Basis Set: (AUG-CC-PVTZ AUX)
    Blend: AUG-CC-PVTZ-JKFIT + DEF2-UNIVERSAL-JKFIT

    Orbital Energies [Eh]
    ---------------------

    Doubly Occupied:

       1A   -104.506227     2A    -10.229811     3A     -7.695856
       4A     -7.695855     5A     -7.695837     6A     -0.733508
       7A     -0.150338     8A     -0.150333     9A     -0.150332

  @DF-RHF Final Energy:  -459.57349719014348

   => Energetics <=

    Nuclear Repulsion Energy =              0.0000000000000000
    One-Electron Energy =                -641.1307970556304099
    Two-Electron Energy =                 181.5572998654868684
    Total Energy =                       -459.5734971901435415
 Dipole X            :       -116.4548767          109.9846494           -6.4702273
 Dipole Y            :         -0.0000423            0.0000000           -0.0000423
 Dipole Z            :         -0.0000000            0.0000000           -0.0000000
 Magnitude           :                                                    6.4702273

    SAPT Results
  --------------------------------------------------------------------------------------------------------
    Electrostatics                -29.64958207 [mEh]     -18.60539364 [kcal/mol]     -77.84496700 [kJ/mol]
      Elst10,r                    -29.26900616 [mEh]     -18.36657866 [kcal/mol]     -76.84576509 [kJ/mol]
      Elst12,r                     -0.38057591 [mEh]      -0.23881499 [kcal/mol]      -0.99920190 [kJ/mol]

    Exchange                        8.20878334 [mEh]       5.15108931 [kcal/mol]      21.55215769 [kJ/mol]
      Exch10                        7.17384306 [mEh]       4.50165449 [kcal/mol]      18.83492237 [kJ/mol]
      Exch10(S^2)                   7.14302096 [mEh]       4.48231333 [kcal/mol]      18.75399896 [kJ/mol]
      Exch11(S^2)                   0.13354134 [mEh]       0.08379846 [kcal/mol]       0.35061274 [kJ/mol]
      Exch12(S^2)                   0.90139894 [mEh]       0.56563637 [kcal/mol]       2.36662258 [kJ/mol]

    Induction                      -8.23776507 [mEh]      -5.16927562 [kcal/mol]     -21.62824921 [kJ/mol]
      Ind20,r                     -21.91778830 [mEh]     -13.75361981 [kcal/mol]     -57.54514526 [kJ/mol]
      Ind22                        -3.18927968 [mEh]      -2.00130322 [kcal/mol]      -8.37345265 [kJ/mol]
      Exch-Ind20,r                 14.92411765 [mEh]       9.36502521 [kcal/mol]      39.18326549 [kJ/mol]
      Exch-Ind22                    2.17162355 [mEh]       1.36271435 [kcal/mol]       5.70159684 [kJ/mol]
      delta HF,r (2)               -0.22643828 [mEh]      -0.14209217 [kcal/mol]      -0.59451362 [kJ/mol]

    Dispersion                     -2.93160304 [mEh]      -1.83960868 [kcal/mol]      -7.69692272 [kJ/mol]
      Disp20                       -3.58633798 [mEh]      -2.25046106 [kcal/mol]      -9.41592907 [kJ/mol]
      Disp21                        0.61329289 [mEh]       0.38484710 [kcal/mol]       1.61020027 [kJ/mol]
      Disp22 (SDQ)                 -0.06178478 [mEh]      -0.03877053 [kcal/mol]      -0.16221591 [kJ/mol]
      Disp22 (T)                   -0.51516617 [mEh]      -0.32327165 [kcal/mol]      -1.35256859 [kJ/mol]
      Est. Disp22 (T)              -0.57666414 [mEh]      -0.36186221 [kcal/mol]      -1.51403149 [kJ/mol]
      Exch-Disp20                   0.67989096 [mEh]       0.42663802 [kcal/mol]       1.78505347 [kJ/mol]

  Total HF                        -29.31527203 [mEh]     -18.39561093 [kcal/mol]     -76.96723612 [kJ/mol]
  Total SAPT0                     -32.22171905 [mEh]     -20.21943397 [kcal/mol]     -84.59811171 [kJ/mol]
  Total SAPT2                     -32.58501082 [mEh]     -20.44740299 [kcal/mol]     -85.55193411 [kJ/mol]
  Total SAPT2+                    -32.61016684 [mEh]     -20.46318863 [kcal/mol]     -85.61798124 [kJ/mol]

  Special recipe for scaled SAPT0 (see Manual):
    Electrostatics sSAPT0         -29.26900616 [mEh]     -18.36657866 [kcal/mol]     -76.84576509 [kJ/mol]
    Exchange sSAPT0                 7.17384306 [mEh]       4.50165449 [kcal/mol]      18.83492237 [kJ/mol]
    Induction sSAPT0               -7.02608163 [mEh]      -4.40893278 [kcal/mol]     -18.44697477 [kJ/mol]
    Dispersion sSAPT0              -2.89760781 [mEh]      -1.81827635 [kcal/mol]      -7.60766825 [kJ/mol]
  Total sSAPT0                    -32.01885253 [mEh]     -20.09213330 [kcal/mol]     -84.06548574 [kJ/mol]
  --------------------------------------------------------------------------------------------------------

*** Psi4 exiting successfully. Buy a developer a beer!
