                               Psi4 1.9 release

  ==> Input File <==

--------------------------------------------------------------------------
MEMORY 60 GB

molecule dimer {
0 1
K      0.000000     0.000000     0.000000
Cl     0.000000     2.633546     0.000000
--
-1 1
Cl     2.896901     0.000000     0.000000

units ang
no_reorient
no_com
symmetry c1
}

set {
basis        aug-cc-pVTZ
scf_type     df
}

energy("sapt2+")
--------------------------------------------------------------------------

  //              Dimer HF             //
    Molecular point group: c1
  Charge       = -1
  Multiplicity = 1
  Basis Set: AUG-CC-PVTZ
    Blend: AUG-CC-PVTZ
  Basis Set: (AUG-CC-PVTZ AUX)
    Blend: AUG-CC-PVTZ-JKFIT + DEF2-UNIVERSAL-JKFIT
  @DF-RHF Final Energy: -1518.37566214858589
    Total Energy =                      -1518.3756621485858886
 Dipole X            :        -97.7890643           93.0639415           -4.7251227
 Dipole Y            :        -88.7719411           84.6035715           -4.1683695
 Dipole Z            :         -0.0000000            0.0000000           -0.0000000
 Magnitude           :                                                    6.3009594
  //            Monomer A HF           //
    Molecular point group: c1
  Multiplicity = 1
  Basis Set: AUG-CC-PVTZ
    Blend: AUG-CC-PVTZ
  Basis Set: (AUG-CC-PVTZ AUX)
    Blend: AUG-CC-PVTZ-JKFIT + DEF2-UNIVERSAL-JKFIT
  @DF-RHF Final Energy: -1058.76873324458438
    Total Energy =                      -1058.7687332445843822
  //            Monomer B HF           //
    Molecular point group: c1

    Geometry (in Angstrom), charge = -1, multiplicity = 1:

       Center              X                  Y                   Z               Mass
    ------------   -----------------  -----------------  -----------------  -----------------
      Gh(K)           0.000000000000     0.000000000000     0.000000000000    38.963706486400
      Gh(CL)          0.000000000000     2.633546000000     0.000000000000    34.968852682000
         CL           2.896901000000     0.000000000000     0.000000000000    34.968852682000

  Charge       = -1
  Multiplicity = 1
  Basis Set: AUG-CC-PVTZ
    Blend: AUG-CC-PVTZ
  Basis Set: (AUG-CC-PVTZ AUX)
    Blend: AUG-CC-PVTZ-JKFIT + DEF2-UNIVERSAL-JKFIT

    Orbital Energies [Eh]
    ---------------------

    Doubly Occupied:

       1A   -104.506308     2A    -10.229832     3A     -7.695880
       4A     -7.695877     5A     -7.695858     6A     -0.733505
       7A     -0.150336     8A     -0.150330     9A     -0.150330

  @DF-RHF Final Energy:  -459.57350163513092

   => Energetics <=

    Nuclear Repulsion Energy =              0.0000000000000000
    One-Electron Energy =                -641.1304887878932277
    Two-Electron Energy =                 181.5569871527623036
    Total Energy =                       -459.5735016351309241
 Dipole X            :        -98.5389599           93.0639415           -5.4750183
 Dipole Y            :          0.0000011            0.0000000            0.0000011
 Dipole Z            :          0.0000000            0.0000000            0.0000000
 Magnitude           :                                                    5.4750183

    SAPT Results
  --------------------------------------------------------------------------------------------------------
    Electrostatics                -52.79704860 [mEh]     -33.13064818 [kcal/mol]    -138.61863200 [kJ/mol]
      Elst10,r                    -51.34359794 [mEh]     -32.21859413 [kcal/mol]    -134.80259782 [kJ/mol]
      Elst12,r                     -1.45345066 [mEh]      -0.91205406 [kcal/mol]      -3.81603418 [kJ/mol]

    Exchange                       33.24133446 [mEh]      20.85925229 [kcal/mol]      87.27511159 [kJ/mol]
      Exch10                       30.70548531 [mEh]      19.26798293 [kcal/mol]      80.61724056 [kJ/mol]
      Exch10(S^2)                  30.24836842 [mEh]      18.98113775 [kcal/mol]      79.41708036 [kJ/mol]
      Exch11(S^2)                   0.23019916 [mEh]       0.14445215 [kcal/mol]       0.60438780 [kJ/mol]
      Exch12(S^2)                   2.30564999 [mEh]       1.44681721 [kcal/mol]       6.05348323 [kJ/mol]

    Induction                     -14.32821836 [mEh]      -8.99109276 [kcal/mol]     -37.61873212 [kJ/mol]
      Ind20,r                     -71.47168720 [mEh]     -44.84916082 [kcal/mol]    -187.64888888 [kJ/mol]
      Ind22                        -8.87597282 [mEh]      -5.56975703 [kcal/mol]     -23.30386342 [kJ/mol]
      Exch-Ind20,r                 59.07875079 [mEh]      37.07247582 [kcal/mol]     155.11123882 [kJ/mol]
      Exch-Ind22                    7.33691069 [mEh]       4.60398097 [kcal/mol]      19.26305637 [kJ/mol]
      delta HF,r (2)               -0.39621983 [mEh]      -0.24863170 [kcal/mol]      -1.04027501 [kJ/mol]

    Dispersion                     -6.05581247 [mEh]      -3.80007970 [kcal/mol]     -15.89953345 [kJ/mol]
      Disp20                       -8.39946484 [mEh]      -5.27074376 [kcal/mol]     -22.05279190 [kJ/mol]
      Disp21                        1.46275266 [mEh]       0.91789115 [kcal/mol]       3.84045657 [kJ/mol]
      Disp22 (SDQ)                 -0.07622884 [mEh]      -0.04783432 [kcal/mol]      -0.20013879 [kJ/mol]
      Disp22 (T)                   -1.10329442 [mEh]      -0.69232770 [kcal/mol]      -2.89669911 [kJ/mol]
      Est. Disp22 (T)              -1.20988573 [mEh]      -0.75921476 [kcal/mol]      -3.17655455 [kJ/mol]
      Exch-Disp20                   2.16701429 [mEh]       1.35982199 [kcal/mol]       5.68949522 [kJ/mol]

  Total HF                        -33.42726887 [mEh]     -20.97592790 [kcal/mol]     -87.76328233 [kJ/mol]
  Total SAPT0                     -39.65971943 [mEh]     -24.88684967 [kcal/mol]    -104.12657901 [kJ/mol]
  Total SAPT2                     -40.11638306 [mEh]     -25.17341042 [kcal/mol]    -105.32554921 [kJ/mol]
  Total SAPT2+                    -39.93974497 [mEh]     -25.06256835 [kcal/mol]    -104.86178598 [kJ/mol]

  Special recipe for scaled SAPT0 (see Manual):
    Electrostatics sSAPT0         -51.34359794 [mEh]     -32.21859413 [kcal/mol]    -134.80259782 [kJ/mol]
    Exchange sSAPT0                30.70548531 [mEh]      19.26798293 [kcal/mol]      80.61724056 [kJ/mol]
    Induction sSAPT0              -10.07006084 [mEh]      -6.31905858 [kcal/mol]     -26.43894110 [kJ/mol]
    Dispersion sSAPT0              -6.13271387 [mEh]      -3.84833606 [kcal/mol]     -16.10143806 [kJ/mol]
  Total sSAPT0                    -36.84088735 [mEh]     -23.11800584 [kcal/mol]     -96.72573641 [kJ/mol]
  --------------------------------------------------------------------------------------------------------

*** Psi4 exiting successfully. Buy a developer a beer!
