                               Psi4 1.9 release

  ==> Input File <==

--------------------------------------------------------------------------
MEMORY 60 GB

molecule dimer {
0 1
Br     0.000000     0.000000     0.000000
K      0.000000     2.788700     0.000000
--
1 1
K      3.346440     0.000000     0.000000

units ang
no_reorient
no_com
symmetry c1
}

set {
basis        aug-cc-pVTZ
scf_type     df
}

energy("sapt2+")
--------------------------------------------------------------------------

  //              Dimer HF             //
    Molecular point group: c1
  Charge       = 1
  Multiplicity = 1
  Basis Set: AUG-CC-PVTZ
    Blend: AUG-CC-PVTZ
  Basis Set: (AUG-CC-PVTZ AUX)
    Blend: AUG-CC-PVTZ-JKFIT + DEF2-UNIVERSAL-JKFIT
  @DF-RHF Final Energy: -3770.77422408185566
    Total Energy =                      -3770.7742240818552091
 Dipole X            :       -114.6568401          120.1532468            5.4964067
 Dipole Y            :        -95.7829964          100.1277057            4.3447093
 Dipole Z            :         -0.0000000            0.0000000           -0.0000000
 Magnitude           :                                                    7.0062105
  //            Monomer A HF           //
    Molecular point group: c1
  Multiplicity = 1
  Basis Set: AUG-CC-PVTZ
    Blend: AUG-CC-PVTZ
  Basis Set: (AUG-CC-PVTZ AUX)
    Blend: AUG-CC-PVTZ-JKFIT + DEF2-UNIVERSAL-JKFIT
  @DF-RHF Final Energy: -3171.72020131972704
    Total Energy =                      -3171.7202013197265842
  //            Monomer B HF           //
    Molecular point group: c1

    Geometry (in Angstrom), charge = 1, multiplicity = 1:

       Center              X                  Y                   Z               Mass
    ------------   -----------------  -----------------  -----------------  -----------------
      Gh(BR)          0.000000000000     0.000000000000     0.000000000000    78.918337600000
      Gh(K)           0.000000000000     2.788700000000     0.000000000000    38.963706486400
         K            3.346440000000     0.000000000000     0.000000000000    38.963706486400

  Charge       = 1
  Multiplicity = 1
  Basis Set: AUG-CC-PVTZ
    Blend: AUG-CC-PVTZ
  Basis Set: (AUG-CC-PVTZ AUX)
    Blend: AUG-CC-PVTZ-JKFIT + DEF2-UNIVERSAL-JKFIT

    Orbital Energies [Eh]
    ---------------------

    Doubly Occupied:

       1A   -133.753597     2A    -14.709082     3A    -11.739146
       4A    -11.739142     5A    -11.739141     6A     -1.964310
       7A     -1.170934     8A     -1.170898     9A     -1.170888

  @DF-RHF Final Energy:  -599.01750833712879

   => Energetics <=

    Nuclear Repulsion Energy =              0.0000000000000000
    One-Electron Energy =                -819.7207407937783046
    Two-Electron Energy =                 220.7032324566494594
    Total Energy =                       -599.0175083371289020
 Dipole X            :       -113.8297547          120.1532468            6.3234921
 Dipole Y            :          0.0001232            0.0000000            0.0001232
 Dipole Z            :         -0.0000000            0.0000000           -0.0000000
 Magnitude           :                                                    6.3234921

    SAPT Results
  --------------------------------------------------------------------------------------------------------
    Electrostatics                -36.12052958 [mEh]     -22.66597451 [kcal/mol]     -94.83443735 [kJ/mol]
      Elst10,r                    -36.04767797 [mEh]     -22.62025943 [kcal/mol]     -94.64316546 [kJ/mol]
      Elst12,r                     -0.07285161 [mEh]      -0.04571508 [kcal/mol]      -0.19127189 [kJ/mol]

    Exchange                       11.14125725 [mEh]       6.99124447 [kcal/mol]      29.25136687 [kJ/mol]
      Exch10                       10.49871664 [mEh]       6.58804416 [kcal/mol]      27.56437675 [kJ/mol]
      Exch10(S^2)                  10.44447094 [mEh]       6.55400446 [kcal/mol]      27.42195467 [kJ/mol]
      Exch11(S^2)                   0.01391840 [mEh]       0.00873393 [kcal/mol]       0.03654275 [kJ/mol]
      Exch12(S^2)                   0.62862221 [mEh]       0.39446639 [kcal/mol]       1.65044737 [kJ/mol]

    Induction                     -11.98690143 [mEh]      -7.52189421 [kcal/mol]     -31.47160536 [kJ/mol]
      Ind20,r                     -31.78264838 [mEh]     -19.94391296 [kcal/mol]     -83.44533182 [kJ/mol]
      Ind22                        -2.93039715 [mEh]      -1.83885197 [kcal/mol]      -7.69375666 [kJ/mol]
      Exch-Ind20,r                 20.70428759 [mEh]      12.99213661 [kcal/mol]      54.35909959 [kJ/mol]
      Exch-Ind22                    1.90895940 [mEh]       1.19789011 [kcal/mol]       5.01197222 [kJ/mol]
      delta HF,r (2)                0.11289711 [mEh]       0.07084400 [kcal/mol]       0.29641131 [kJ/mol]

    Dispersion                     -2.06174426 [mEh]      -1.29376406 [kcal/mol]      -5.41310882 [kJ/mol]
      Disp20                       -2.74263605 [mEh]      -1.72103011 [kcal/mol]      -7.20078997 [kJ/mol]
      Disp21                        0.53066592 [mEh]       0.33299789 [kcal/mol]       1.39326318 [kJ/mol]
      Disp22 (SDQ)                 -0.01864481 [mEh]      -0.01169980 [kcal/mol]      -0.04895195 [kJ/mol]
      Disp22 (T)                   -0.25239508 [mEh]      -0.15838030 [kcal/mol]      -0.66266319 [kJ/mol]
      Est. Disp22 (T)              -0.27575063 [mEh]      -0.17303613 [kcal/mol]      -0.72398319 [kJ/mol]
      Exch-Disp20                   0.44462132 [mEh]       0.27900409 [kcal/mol]       1.16735311 [kJ/mol]

  Total HF                        -36.51442500 [mEh]     -22.91314762 [kcal/mol]     -95.86860963 [kJ/mol]
  Total SAPT0                     -38.81243974 [mEh]     -24.35517364 [kcal/mol]    -101.90204649 [kJ/mol]
  Total SAPT2                     -39.26418850 [mEh]     -24.63865026 [kcal/mol]    -103.08811270 [kJ/mol]
  Total SAPT2+                    -39.02791803 [mEh]     -24.49038830 [kcal/mol]    -102.46778466 [kJ/mol]

  Special recipe for scaled SAPT0 (see Manual):
    Electrostatics sSAPT0         -36.04767797 [mEh]     -22.62025943 [kcal/mol]     -94.64316546 [kJ/mol]
    Exchange sSAPT0                10.49871664 [mEh]       6.58804416 [kcal/mol]      27.56437675 [kJ/mol]
    Induction sSAPT0              -10.64118820 [mEh]      -6.67744641 [kcal/mol]     -27.93843577 [kJ/mol]
    Dispersion sSAPT0              -2.29105097 [mEh]      -1.43765619 [kcal/mol]      -6.01515350 [kJ/mol]
  Total sSAPT0                    -38.48120050 [mEh]     -24.14731787 [kcal/mol]    -101.03237798 [kJ/mol]
  --------------------------------------------------------------------------------------------------------

*** Psi4 exiting successfully. Buy a developer a beer!
