                               Psi4 1.9 release

  ==> Input File <==

--------------------------------------------------------------------------
MEMORY 60 GB

molecule dimer {
0 1
Br     0.000000     0.000000     0.000000
K      0.000000     2.788700     0.000000
--
1 1
K      3.067570     0.000000     0.000000

units ang
no_reorient
no_com
symmetry c1
}

set {
basis        aug-cc-pVTZ
scf_type     df
}

energy("sapt2+")
--------------------------------------------------------------------------

  //              Dimer HF             //
    Molecular point group: c1
  Charge       = 1
  Multiplicity = 1
  Basis Set: AUG-CC-PVTZ
    Blend: AUG-CC-PVTZ
  Basis Set: (AUG-CC-PVTZ AUX)
    Blend: AUG-CC-PVTZ-JKFIT + DEF2-UNIVERSAL-JKFIT
  @DF-RHF Final Energy: -3770.77539669383168
    Total Energy =                      -3770.7753966938316808
 Dipole X            :       -105.2102764          110.1404762            4.9301999
 Dipole Y            :        -95.7667301          100.1277057            4.3609755
 Dipole Z            :          0.0000000            0.0000000            0.0000000
 Magnitude           :                                                    6.5821713
  //            Monomer A HF           //
    Molecular point group: c1
  Multiplicity = 1
  Basis Set: AUG-CC-PVTZ
    Blend: AUG-CC-PVTZ
  Basis Set: (AUG-CC-PVTZ AUX)
    Blend: AUG-CC-PVTZ-JKFIT + DEF2-UNIVERSAL-JKFIT
  @DF-RHF Final Energy: -3171.72021040157188
    Total Energy =                      -3171.7202104015714212
  //            Monomer B HF           //
    Molecular point group: c1

    Geometry (in Angstrom), charge = 1, multiplicity = 1:

       Center              X                  Y                   Z               Mass
    ------------   -----------------  -----------------  -----------------  -----------------
      Gh(BR)          0.000000000000     0.000000000000     0.000000000000    78.918337600000
      Gh(K)           0.000000000000     2.788700000000     0.000000000000    38.963706486400
         K            3.067570000000     0.000000000000     0.000000000000    38.963706486400

  Charge       = 1
  Multiplicity = 1
  Basis Set: AUG-CC-PVTZ
    Blend: AUG-CC-PVTZ
  Basis Set: (AUG-CC-PVTZ AUX)
    Blend: AUG-CC-PVTZ-JKFIT + DEF2-UNIVERSAL-JKFIT

    Orbital Energies [Eh]
    ---------------------

    Doubly Occupied:

       1A   -133.753547     2A    -14.709041     3A    -11.739107
       4A    -11.739102     5A    -11.739100     6A     -1.964287
       7A     -1.170922     8A     -1.170883     9A     -1.170870

  @DF-RHF Final Energy:  -599.01750884580895

   => Energetics <=

    Nuclear Repulsion Energy =              0.0000000000000000
    One-Electron Energy =                -819.7213039746359300
    Two-Electron Energy =                 220.7037951288269539
    Total Energy =                       -599.0175088458089476
 Dipole X            :       -104.3439911          110.1404762            5.7964851
 Dipole Y            :          0.0001476            0.0000000            0.0001476
 Dipole Z            :         -0.0000000            0.0000000           -0.0000000
 Magnitude           :                                                    5.7964852

    SAPT Results
  --------------------------------------------------------------------------------------------------------
    Electrostatics                -47.61088329 [mEh]     -29.87628032 [kcal/mol]    -125.00235685 [kJ/mol]
      Elst10,r                    -47.34040246 [mEh]     -29.70655104 [kcal/mol]    -124.29220954 [kJ/mol]
      Elst12,r                     -0.27048083 [mEh]      -0.16972928 [kcal/mol]      -0.71014731 [kJ/mol]

    Exchange                       24.78650038 [mEh]      15.55376381 [kcal/mol]      65.07694779 [kJ/mol]
      Exch10                       23.74695594 [mEh]      14.90143982 [kcal/mol]      62.34762422 [kJ/mol]
      Exch10(S^2)                  23.48725363 [mEh]      14.73847417 [kcal/mol]      61.66577592 [kJ/mol]
      Exch11(S^2)                  -0.05321048 [mEh]      -0.03339008 [kcal/mol]      -0.13970410 [kJ/mol]
      Exch12(S^2)                   1.09275493 [mEh]       0.68571407 [kcal/mol]       2.86902767 [kJ/mol]

    Induction                     -15.33925234 [mEh]      -9.62552616 [kcal/mol]     -40.27320146 [kJ/mol]
      Ind20,r                     -59.90425928 [mEh]     -37.59049022 [kcal/mol]    -157.27861108 [kJ/mol]
      Ind22                        -5.17861140 [mEh]      -3.24962771 [kcal/mol]     -13.59644235 [kJ/mol]
      Exch-Ind20,r                 45.38396412 [mEh]      28.47886744 [kcal/mol]     119.15558139 [kJ/mol]
      Exch-Ind22                    3.92335898 [mEh]       2.46194493 [kcal/mol]      10.30077759 [kJ/mol]
      delta HF,r (2)                0.43629524 [mEh]       0.27377939 [kcal/mol]       1.14549299 [kJ/mol]

    Dispersion                     -3.27589616 [mEh]      -2.05565588 [kcal/mol]      -8.60086419 [kJ/mol]
      Disp20                       -4.63566474 [mEh]      -2.90892354 [kcal/mol]     -12.17093610 [kJ/mol]
      Disp21                        0.87632623 [mEh]       0.54990301 [kcal/mol]       2.30079421 [kJ/mol]
      Disp22 (SDQ)                 -0.01263509 [mEh]      -0.00792864 [kcal/mol]      -0.03317341 [kJ/mol]
      Disp22 (T)                   -0.41408167 [mEh]      -0.25984017 [kcal/mol]      -1.08717128 [kJ/mol]
      Est. Disp22 (T)              -0.45214879 [mEh]      -0.28372765 [kcal/mol]      -1.18711648 [kJ/mol]
      Exch-Disp20                   0.94822622 [mEh]       0.59502093 [kcal/mol]       2.48956759 [kJ/mol]

  Total HF                        -37.67744645 [mEh]     -23.64295460 [kcal/mol]     -98.92212203 [kJ/mol]
  Total SAPT0                     -41.36488497 [mEh]     -25.95685720 [kcal/mol]    -108.60349054 [kJ/mol]
  Total SAPT2                     -41.85107377 [mEh]     -26.26194528 [kcal/mol]    -109.87997904 [kJ/mol]
  Total SAPT2+                    -41.43953140 [mEh]     -26.00369855 [kcal/mol]    -108.79947471 [kJ/mol]

  Special recipe for scaled SAPT0 (see Manual):
    Electrostatics sSAPT0         -47.34040246 [mEh]     -29.70655104 [kcal/mol]    -124.29220954 [kJ/mol]
    Exchange sSAPT0                23.74695594 [mEh]      14.90143982 [kcal/mol]      62.34762422 [kJ/mol]
    Induction sSAPT0              -12.56183940 [mEh]      -7.88267323 [kcal/mol]     -32.98110480 [kJ/mol]
    Dispersion sSAPT0              -3.65563539 [mEh]      -2.29394584 [kcal/mol]      -9.59786938 [kJ/mol]
  Total sSAPT0                    -39.81092131 [mEh]     -24.98173028 [kcal/mol]    -104.52355950 [kJ/mol]
  --------------------------------------------------------------------------------------------------------

*** Psi4 exiting successfully. Buy a developer a beer!
