                               Psi4 1.9 release

  ==> Input File <==

--------------------------------------------------------------------------
MEMORY 60 GB

molecule dimer {
0 1
Br     0.000000     0.000000     0.000000
K      0.000000     2.788700     0.000000
--
1 1
K      3.625310     0.000000     0.000000

units ang
no_reorient
no_com
symmetry c1
}

set {
basis        aug-cc-pVTZ
scf_type     df
}

energy("sapt2+")
--------------------------------------------------------------------------

  //              Dimer HF             //
    Molecular point group: c1
  Charge       = 1
  Multiplicity = 1
  Basis Set: AUG-CC-PVTZ
    Blend: AUG-CC-PVTZ
  Basis Set: (AUG-CC-PVTZ AUX)
    Blend: AUG-CC-PVTZ-JKFIT + DEF2-UNIVERSAL-JKFIT
  @DF-RHF Final Energy: -3770.77037960268626
    Total Energy =                      -3770.7703796026862619
 Dipole X            :       -124.0902434          130.1660174            6.0757739
 Dipole Y            :        -95.7962121          100.1277057            4.3314935
 Dipole Z            :         -0.0000000            0.0000000           -0.0000000
 Magnitude           :                                                    7.4616932
  //            Monomer A HF           //
    Molecular point group: c1
  Multiplicity = 1
  Basis Set: AUG-CC-PVTZ
    Blend: AUG-CC-PVTZ
  Basis Set: (AUG-CC-PVTZ AUX)
    Blend: AUG-CC-PVTZ-JKFIT + DEF2-UNIVERSAL-JKFIT
  @DF-RHF Final Energy: -3171.72019164697258
    Total Energy =                      -3171.7201916469721255
  //            Monomer B HF           //
    Molecular point group: c1

    Geometry (in Angstrom), charge = 1, multiplicity = 1:

       Center              X                  Y                   Z               Mass
    ------------   -----------------  -----------------  -----------------  -----------------
      Gh(BR)          0.000000000000     0.000000000000     0.000000000000    78.918337600000
      Gh(K)           0.000000000000     2.788700000000     0.000000000000    38.963706486400
         K            3.625310000000     0.000000000000     0.000000000000    38.963706486400

  Charge       = 1
  Multiplicity = 1
  Basis Set: AUG-CC-PVTZ
    Blend: AUG-CC-PVTZ
  Basis Set: (AUG-CC-PVTZ AUX)
    Blend: AUG-CC-PVTZ-JKFIT + DEF2-UNIVERSAL-JKFIT

    Orbital Energies [Eh]
    ---------------------

    Doubly Occupied:

       1A   -133.753639     2A    -14.709115     3A    -11.739180
       4A    -11.739176     5A    -11.739175     6A     -1.964326
       7A     -1.170946     8A     -1.170910     9A     -1.170902

  @DF-RHF Final Energy:  -599.01750801847959

   => Energetics <=

    Nuclear Repulsion Energy =              0.0000000000000000
    One-Electron Energy =                -819.7202763625440411
    Two-Electron Energy =                 220.7027683440644523
    Total Energy =                       -599.0175080184795888
 Dipole X            :       -123.3155471          130.1660174            6.8504703
 Dipole Y            :          0.0000873            0.0000000            0.0000873
 Dipole Z            :         -0.0000000            0.0000000           -0.0000000
 Magnitude           :                                                    6.8504703

    SAPT Results
  --------------------------------------------------------------------------------------------------------
    Electrostatics                -28.60434023 [mEh]     -17.94949449 [kcal/mol]     -75.10068493 [kJ/mol]
      Elst10,r                    -28.63720782 [mEh]     -17.97011921 [kcal/mol]     -75.18697877 [kJ/mol]
      Elst12,r                      0.03286759 [mEh]       0.02062472 [kcal/mol]       0.08629384 [kJ/mol]

    Exchange                        5.01168579 [mEh]       3.14488032 [kcal/mol]      13.15817924 [kJ/mol]
      Exch10                        4.65139750 [mEh]       2.91879600 [kcal/mol]      12.21224244 [kJ/mol]
      Exch10(S^2)                   4.64017001 [mEh]       2.91175064 [kcal/mol]      12.18276468 [kJ/mol]
      Exch11(S^2)                   0.01675857 [mEh]       0.01051616 [kcal/mol]       0.04399962 [kJ/mol]
      Exch12(S^2)                   0.34352973 [mEh]       0.21556816 [kcal/mol]       0.90193718 [kJ/mol]

    Induction                      -9.51436671 [mEh]      -5.97035525 [kcal/mol]     -24.97996636 [kJ/mol]
      Ind20,r                     -18.04864651 [mEh]     -11.32569667 [kcal/mol]     -47.38671488 [kJ/mol]
      Ind22                        -1.71847676 [mEh]      -1.07836045 [kcal/mol]      -4.51186011 [kJ/mol]
      Exch-Ind20,r                  9.43391364 [mEh]       5.91987018 [kcal/mol]      24.76873684 [kJ/mol]
      Exch-Ind22                    0.89823696 [mEh]       0.56365220 [kcal/mol]       2.35832081 [kJ/mol]
      delta HF,r (2)               -0.07939404 [mEh]      -0.04982051 [kcal/mol]      -0.20844902 [kJ/mol]

    Dispersion                     -1.32905547 [mEh]      -0.83399490 [kcal/mol]      -3.48943465 [kJ/mol]
      Disp20                       -1.67646282 [mEh]      -1.05199630 [kcal/mol]      -4.40155253 [kJ/mol]
      Disp21                        0.33108730 [mEh]       0.20776042 [kcal/mol]       0.86926958 [kJ/mol]
      Disp22 (SDQ)                 -0.01817585 [mEh]      -0.01140552 [kcal/mol]      -0.04772069 [kJ/mol]
      Disp22 (T)                   -0.15817658 [mEh]      -0.09925730 [kcal/mol]      -0.41529256 [kJ/mol]
      Est. Disp22 (T)              -0.17267741 [mEh]      -0.10835671 [kcal/mol]      -0.45336447 [kJ/mol]
      Exch-Disp20                   0.20717331 [mEh]       0.13000322 [kcal/mol]       0.54393346 [kJ/mol]

  Total HF                        -32.67993723 [mEh]     -20.50697022 [kcal/mol]     -85.80116339 [kJ/mol]
  Total SAPT0                     -34.14922674 [mEh]     -21.42896330 [kcal/mol]     -89.65878246 [kJ/mol]
  Total SAPT2                     -34.57631066 [mEh]     -21.69696251 [kcal/mol]     -90.78009113 [kJ/mol]
  Total SAPT2+                    -34.43607662 [mEh]     -21.60896432 [kcal/mol]     -90.41190670 [kJ/mol]

  Special recipe for scaled SAPT0 (see Manual):
    Electrostatics sSAPT0         -28.63720782 [mEh]     -17.97011921 [kcal/mol]     -75.18697877 [kJ/mol]
    Exchange sSAPT0                 4.65139750 [mEh]       2.91879600 [kcal/mol]      12.21224244 [kJ/mol]
    Induction sSAPT0               -8.62548137 [mEh]      -5.41257128 [kcal/mol]     -22.64619823 [kJ/mol]
    Dispersion sSAPT0              -1.46778202 [mEh]      -0.92104712 [kcal/mol]      -3.85366116 [kJ/mol]
  Total sSAPT0                    -34.07907372 [mEh]     -21.38494161 [kcal/mol]     -89.47459572 [kJ/mol]
  --------------------------------------------------------------------------------------------------------

*** Psi4 exiting successfully. Buy a developer a beer!
