                               Psi4 1.9 release

  ==> Input File <==

--------------------------------------------------------------------------
MEMORY 60 GB

molecule dimer {
0 1
Br     0.000000     0.000000     0.000000
K      0.000000     2.788700     0.000000
--
1 1
K      5.577400     0.000000     0.000000

units ang
no_reorient
no_com
symmetry c1
}

set {
basis        aug-cc-pVTZ
scf_type     df
}

energy("sapt2+")
--------------------------------------------------------------------------

  //              Dimer HF             //
    Molecular point group: c1
  Charge       = 1
  Multiplicity = 1
  Basis Set: AUG-CC-PVTZ
    Blend: AUG-CC-PVTZ
  Basis Set: (AUG-CC-PVTZ AUX)
    Blend: AUG-CC-PVTZ-JKFIT + DEF2-UNIVERSAL-JKFIT
  @DF-RHF Final Energy: -3770.74843811346318
    Total Energy =                      -3770.7484381134631803
 Dipole X            :       -190.0855091          200.2554114           10.1699022
 Dipole Y            :        -95.8384956          100.1277057            4.2892101
 Dipole Z            :         -0.0000000            0.0000000           -0.0000000
 Magnitude           :                                                   11.0374016
  //            Monomer A HF           //
    Molecular point group: c1
  Multiplicity = 1
  Basis Set: AUG-CC-PVTZ
    Blend: AUG-CC-PVTZ
  Basis Set: (AUG-CC-PVTZ AUX)
    Blend: AUG-CC-PVTZ-JKFIT + DEF2-UNIVERSAL-JKFIT
  @DF-RHF Final Energy: -3171.72015531157149
    Total Energy =                      -3171.7201553115714887
  //            Monomer B HF           //
    Molecular point group: c1

    Geometry (in Angstrom), charge = 1, multiplicity = 1:

       Center              X                  Y                   Z               Mass
    ------------   -----------------  -----------------  -----------------  -----------------
      Gh(BR)          0.000000000000     0.000000000000     0.000000000000    78.918337600000
      Gh(K)           0.000000000000     2.788700000000     0.000000000000    38.963706486400
         K            5.577400000000     0.000000000000     0.000000000000    38.963706486400

  Charge       = 1
  Multiplicity = 1
  Basis Set: AUG-CC-PVTZ
    Blend: AUG-CC-PVTZ
  Basis Set: (AUG-CC-PVTZ AUX)
    Blend: AUG-CC-PVTZ-JKFIT + DEF2-UNIVERSAL-JKFIT

    Orbital Energies [Eh]
    ---------------------

    Doubly Occupied:

       1A   -133.753906     2A    -14.709330     3A    -11.739393
       4A    -11.739391     5A    -11.739391     6A     -1.964424
       7A     -1.171004     8A     -1.170988     9A     -1.170988

  @DF-RHF Final Energy:  -599.01750642010995

   => Energetics <=

    Nuclear Repulsion Energy =              0.0000000000000000
    One-Electron Energy =                -819.7173873552029590
    Two-Electron Energy =                 220.6998809350930060
    Total Energy =                       -599.0175064201099531
 Dipole X            :       -189.7156962          200.2554114           10.5397152
 Dipole Y            :          0.0000194            0.0000000            0.0000194
 Dipole Z            :         -0.0000000            0.0000000           -0.0000000
 Magnitude           :                                                   10.5397152

    SAPT Results
  --------------------------------------------------------------------------------------------------------
    Electrostatics                 -9.00265464 [mEh]      -5.64925108 [kcal/mol]     -23.63646650 [kJ/mol]
      Elst10,r                     -9.04189186 [mEh]      -5.67387280 [kcal/mol]     -23.73948380 [kJ/mol]
      Elst12,r                      0.03923722 [mEh]       0.02462173 [kcal/mol]       0.10301730 [kJ/mol]

    Exchange                        0.01587246 [mEh]       0.00996012 [kcal/mol]       0.04167313 [kJ/mol]
      Exch10                        0.01685445 [mEh]       0.01057633 [kcal/mol]       0.04425136 [kJ/mol]
      Exch10(S^2)                   0.01685428 [mEh]       0.01057622 [kcal/mol]       0.04425090 [kJ/mol]
      Exch11(S^2)                   0.00008425 [mEh]       0.00005287 [kcal/mol]       0.00022121 [kJ/mol]
      Exch12(S^2)                  -0.00106625 [mEh]      -0.00066908 [kcal/mol]      -0.00279944 [kJ/mol]

    Induction                      -1.89307481 [mEh]      -1.18792238 [kcal/mol]      -4.97026724 [kJ/mol]
      Ind20,r                      -1.67767995 [mEh]      -1.05276006 [kcal/mol]      -4.40474810 [kJ/mol]
      Ind22                        -0.14509637 [mEh]      -0.09104935 [kcal/mol]      -0.38095048 [kJ/mol]
      Exch-Ind20,r                  0.03891872 [mEh]       0.02442186 [kcal/mol]       0.10218107 [kJ/mol]
      Exch-Ind22                    0.00336594 [mEh]       0.00211216 [kcal/mol]       0.00883727 [kJ/mol]
      delta HF,r (2)               -0.11258314 [mEh]      -0.07064699 [kcal/mol]      -0.29558700 [kJ/mol]

    Dispersion                     -0.08810424 [mEh]      -0.05528625 [kcal/mol]      -0.23131766 [kJ/mol]
      Disp20                       -0.10178583 [mEh]      -0.06387157 [kcal/mol]      -0.26723865 [kJ/mol]
      Disp21                        0.02621939 [mEh]       0.01645292 [kcal/mol]       0.06883900 [kJ/mol]
      Disp22 (SDQ)                 -0.00261120 [mEh]      -0.00163855 [kcal/mol]      -0.00685570 [kJ/mol]
      Disp22 (T)                   -0.01050159 [mEh]      -0.00658985 [kcal/mol]      -0.02757192 [kJ/mol]
      Est. Disp22 (T)              -0.01082849 [mEh]      -0.00679498 [kcal/mol]      -0.02843020 [kJ/mol]
      Exch-Disp20                   0.00090188 [mEh]       0.00056594 [kcal/mol]       0.00236789 [kJ/mol]

  Total HF                        -10.77638178 [mEh]      -6.76228166 [kcal/mol]     -28.29338647 [kJ/mol]
  Total SAPT0                     -10.87726573 [mEh]      -6.82558729 [kcal/mol]     -28.55825723 [kJ/mol]
  Total SAPT2                     -10.98074095 [mEh]      -6.89051897 [kcal/mol]     -28.82993138 [kJ/mol]
  Total SAPT2+                    -10.96796124 [mEh]      -6.88249959 [kcal/mol]     -28.79637827 [kJ/mol]

  Special recipe for scaled SAPT0 (see Manual):
    Electrostatics sSAPT0          -9.04189186 [mEh]      -5.67387280 [kcal/mol]     -23.73948380 [kJ/mol]
    Exchange sSAPT0                 0.01685445 [mEh]       0.01057633 [kcal/mol]       0.04425136 [kJ/mol]
    Induction sSAPT0               -1.75134316 [mEh]      -1.09898443 [kcal/mol]      -4.59815084 [kJ/mol]
    Dispersion sSAPT0              -0.10088392 [mEh]      -0.06330561 [kcal/mol]      -0.26487069 [kJ/mol]
  Total sSAPT0                    -10.87726449 [mEh]      -6.82558651 [kcal/mol]     -28.55825397 [kJ/mol]
  --------------------------------------------------------------------------------------------------------

*** Psi4 exiting successfully. Buy a developer a beer!
