                               Psi4 1.9 release

  ==> Input File <==

--------------------------------------------------------------------------
MEMORY 60 GB

molecule dimer {
0 1
Br     0.000000     0.000000     0.000000
K      0.000000     2.788700     0.000000
--
1 1
K      2.788700     0.000000     0.000000

units ang
no_reorient
no_com
symmetry c1
}

set {
basis        aug-cc-pVTZ
scf_type     df
}

energy("sapt2+")
--------------------------------------------------------------------------

  //              Dimer HF             //
    Molecular point group: c1
  Charge       = 1
  Multiplicity = 1
  Basis Set: AUG-CC-PVTZ
    Blend: AUG-CC-PVTZ
  Basis Set: (AUG-CC-PVTZ AUX)
    Blend: AUG-CC-PVTZ-JKFIT + DEF2-UNIVERSAL-JKFIT
  @DF-RHF Final Energy: -3770.76895984609291
    Total Energy =                      -3770.7689598460929119
 Dipole X            :        -95.7468945          100.1277057            4.3808112
 Dipole Y            :        -95.7468945          100.1277057            4.3808112
 Dipole Z            :          0.0000000            0.0000000            0.0000000
 Magnitude           :                                                    6.1954026
  //            Monomer A HF           //
    Molecular point group: c1
  Multiplicity = 1
  Basis Set: AUG-CC-PVTZ
    Blend: AUG-CC-PVTZ
  Basis Set: (AUG-CC-PVTZ AUX)
    Blend: AUG-CC-PVTZ-JKFIT + DEF2-UNIVERSAL-JKFIT
  @DF-RHF Final Energy: -3171.72021733310658
    Total Energy =                      -3171.7202173331065751
  //            Monomer B HF           //
    Molecular point group: c1

    Geometry (in Angstrom), charge = 1, multiplicity = 1:

       Center              X                  Y                   Z               Mass
    ------------   -----------------  -----------------  -----------------  -----------------
      Gh(BR)          0.000000000000     0.000000000000     0.000000000000    78.918337600000
      Gh(K)           0.000000000000     2.788700000000     0.000000000000    38.963706486400
         K            2.788700000000     0.000000000000     0.000000000000    38.963706486400

  Charge       = 1
  Multiplicity = 1
  Basis Set: AUG-CC-PVTZ
    Blend: AUG-CC-PVTZ
  Basis Set: (AUG-CC-PVTZ AUX)
    Blend: AUG-CC-PVTZ-JKFIT + DEF2-UNIVERSAL-JKFIT

    Orbital Energies [Eh]
    ---------------------

    Doubly Occupied:

       1A   -133.753484     2A    -14.708990     3A    -11.739058
       4A    -11.739053     5A    -11.739050     6A     -1.964256
       7A     -1.170910     8A     -1.170866     9A     -1.170847

  @DF-RHF Final Energy:  -599.01750953006410

   => Energetics <=

    Nuclear Repulsion Energy =              0.0000000000000000
    One-Electron Energy =                -819.7219919523801082
    Two-Electron Energy =                 220.7044824223160049
    Total Energy =                       -599.0175095300641033
 Dipole X            :        -94.8582691          100.1277057            5.2694366
 Dipole Y            :          0.0001156            0.0000000            0.0001156
 Dipole Z            :          0.0000000            0.0000000            0.0000000
 Magnitude           :                                                    5.2694366

    SAPT Results
  --------------------------------------------------------------------------------------------------------
    Electrostatics                -66.72468259 [mEh]     -41.87037046 [kcal/mol]    -175.18562999 [kJ/mol]
      Elst10,r                    -66.17143259 [mEh]     -41.52320085 [kcal/mol]    -173.73307234 [kJ/mol]
      Elst12,r                     -0.55324999 [mEh]      -0.34716961 [kcal/mol]      -1.45255765 [kJ/mol]

    Exchange                       55.19467041 [mEh]      34.63517858 [kcal/mol]     144.91358719 [kJ/mol]
      Exch10                       53.81177708 [mEh]      33.76739992 [kcal/mol]     141.28280127 [kJ/mol]
      Exch10(S^2)                  52.58454937 [mEh]      32.99730290 [kcal/mol]     138.06071535 [kJ/mol]
      Exch11(S^2)                  -0.39012267 [mEh]      -0.24480567 [kcal/mol]      -1.02426693 [kJ/mol]
      Exch12(S^2)                   1.77301599 [mEh]       1.11258433 [kcal/mol]       4.65505285 [kJ/mol]

    Induction                     -20.50580721 [mEh]     -12.86758829 [kcal/mol]     -53.83798941 [kJ/mol]
      Ind20,r                    -119.75542750 [mEh]     -75.14766529 [kcal/mol]    -314.41783157 [kJ/mol]
      Ind22                        -9.40161051 [mEh]      -5.89959966 [kcal/mol]     -24.68392499 [kJ/mol]
      Exch-Ind20,r                 98.96129697 [mEh]      62.09915139 [kcal/mol]     259.82284941 [kJ/mol]
      Exch-Ind22                    7.76913071 [mEh]       4.87520312 [kcal/mol]      20.39784987 [kJ/mol]
      delta HF,r (2)                1.92080311 [mEh]       1.20532215 [kcal/mol]       5.04306787 [kJ/mol]

    Dispersion                     -5.34969177 [mEh]      -3.35698226 [kcal/mol]     -14.04561379 [kJ/mol]
      Disp20                       -8.08179621 [mEh]      -5.07140369 [kcal/mol]     -21.21875303 [kJ/mol]
      Disp21                        1.49495019 [mEh]       0.93809540 [kcal/mol]       3.92499117 [kJ/mol]
      Disp22 (SDQ)                  0.00541195 [mEh]       0.00339605 [kcal/mol]       0.01420906 [kJ/mol]
      Disp22 (T)                   -0.70713356 [mEh]      -0.44373301 [kcal/mol]      -1.85657891 [kJ/mol]
      Est. Disp22 (T)              -0.75830588 [mEh]      -0.47584412 [kcal/mol]      -1.99093180 [kJ/mol]
      Exch-Disp20                   1.99004819 [mEh]       1.24877409 [kcal/mol]       5.22487080 [kJ/mol]

  Total HF                        -31.23298292 [mEh]     -19.59899268 [kcal/mol]     -82.00218536 [kJ/mol]
  Total SAPT0                     -37.32473094 [mEh]     -23.42162227 [kcal/mol]     -97.99606759 [kJ/mol]
  Total SAPT2                     -38.12756741 [mEh]     -23.92540976 [kcal/mol]    -100.10391445 [kJ/mol]
  Total SAPT2+                    -37.38551115 [mEh]     -23.45976243 [kcal/mol]     -98.15564601 [kJ/mol]

  Special recipe for scaled SAPT0 (see Manual):
    Electrostatics sSAPT0         -66.17143259 [mEh]     -41.52320085 [kcal/mol]    -173.73307234 [kJ/mol]
    Exchange sSAPT0                53.81177708 [mEh]      33.76739992 [kcal/mol]     141.28280127 [kJ/mol]
    Induction sSAPT0              -11.78163561 [mEh]      -7.39308796 [kcal/mol]     -30.93268004 [kJ/mol]
    Dispersion sSAPT0              -5.94913865 [mEh]      -3.73314086 [kcal/mol]     -15.61946137 [kJ/mol]
  Total sSAPT0                    -30.09042977 [mEh]     -18.88202975 [kcal/mol]     -79.00241248 [kJ/mol]
  --------------------------------------------------------------------------------------------------------

*** Psi4 exiting successfully. Buy a developer a beer!
