                               Psi4 1.9 release

  ==> Input File <==

--------------------------------------------------------------------------
MEMORY 60 GB

molecule dimer {
0 1
Br     0.000000     0.000000     0.000000
K      0.000000     2.788700     0.000000
--
1 1
K      4.183050     0.000000     0.000000

units ang
no_reorient
no_com
symmetry c1
}

set {
basis        aug-cc-pVTZ
scf_type     df
}

energy("sapt2+")
--------------------------------------------------------------------------

  //              Dimer HF             //
    Molecular point group: c1
  Charge       = 1
  Multiplicity = 1
  Basis Set: AUG-CC-PVTZ
    Blend: AUG-CC-PVTZ
  Basis Set: (AUG-CC-PVTZ AUX)
    Blend: AUG-CC-PVTZ-JKFIT + DEF2-UNIVERSAL-JKFIT
  @DF-RHF Final Energy: -3770.76172189923500
    Total Energy =                      -3770.7617218992354537
 Dipole X            :       -142.9343240          150.1915585            7.2572345
 Dipole Y            :        -95.8153452          100.1277057            4.3123605
 Dipole Z            :         -0.0000000            0.0000000           -0.0000000
 Magnitude           :                                                    8.4417952
  //            Monomer A HF           //
    Molecular point group: c1
  Multiplicity = 1
  Basis Set: AUG-CC-PVTZ
    Blend: AUG-CC-PVTZ
  Basis Set: (AUG-CC-PVTZ AUX)
    Blend: AUG-CC-PVTZ-JKFIT + DEF2-UNIVERSAL-JKFIT
  @DF-RHF Final Energy: -3171.72017490358940
    Total Energy =                      -3171.7201749035893954
  //            Monomer B HF           //
    Molecular point group: c1

    Geometry (in Angstrom), charge = 1, multiplicity = 1:

       Center              X                  Y                   Z               Mass
    ------------   -----------------  -----------------  -----------------  -----------------
      Gh(BR)          0.000000000000     0.000000000000     0.000000000000    78.918337600000
      Gh(K)           0.000000000000     2.788700000000     0.000000000000    38.963706486400
         K            4.183050000000     0.000000000000     0.000000000000    38.963706486400

  Charge       = 1
  Multiplicity = 1
  Basis Set: AUG-CC-PVTZ
    Blend: AUG-CC-PVTZ
  Basis Set: (AUG-CC-PVTZ AUX)
    Blend: AUG-CC-PVTZ-JKFIT + DEF2-UNIVERSAL-JKFIT

    Orbital Energies [Eh]
    ---------------------

    Doubly Occupied:

       1A   -133.753740     2A    -14.709195     3A    -11.739260
       4A    -11.739256     5A    -11.739256     6A     -1.964360
       7A     -1.170969     8A     -1.170937     9A     -1.170932

  @DF-RHF Final Energy:  -599.01750751069108

   => Energetics <=

    Nuclear Repulsion Energy =              0.0000000000000000
    One-Electron Energy =                -819.7192043279999325
    Two-Electron Energy =                 220.7016968173087434
    Total Energy =                       -599.0175075106911891
 Dipole X            :       -142.2870372          150.1915585            7.9045214
 Dipole Y            :          0.0000456            0.0000000            0.0000456
 Dipole Z            :         -0.0000000            0.0000000           -0.0000000
 Magnitude           :                                                    7.9045214

    SAPT Results
  --------------------------------------------------------------------------------------------------------
    Electrostatics                -19.36950085 [mEh]     -12.15454528 [kcal/mol]     -50.85461746 [kJ/mol]
      Elst10,r                    -19.44575593 [mEh]     -12.20239607 [kcal/mol]     -51.05482515 [kJ/mol]
      Elst12,r                      0.07625508 [mEh]       0.04785079 [kcal/mol]       0.20020769 [kJ/mol]

    Exchange                        1.01168978 [mEh]       0.63484492 [kcal/mol]       2.65619114 [kJ/mol]
      Exch10                        0.91645279 [mEh]       0.57508281 [kcal/mol]       2.40614648 [kJ/mol]
      Exch10(S^2)                   0.91598376 [mEh]       0.57478849 [kcal/mol]       2.40491503 [kJ/mol]
      Exch11(S^2)                   0.00503593 [mEh]       0.00316009 [kcal/mol]       0.01322183 [kJ/mol]
      Exch12(S^2)                   0.09020106 [mEh]       0.05660202 [kcal/mol]       0.23682284 [kJ/mol]

    Induction                      -6.00341031 [mEh]      -3.76719685 [kcal/mol]     -15.76195161 [kJ/mol]
      Ind20,r                      -7.16096948 [mEh]      -4.49357619 [kcal/mol]     -18.80112277 [kJ/mol]
      Ind22                        -0.67733419 [mEh]      -0.42503362 [kcal/mol]      -1.77834067 [kJ/mol]
      Exch-Ind20,r                  1.94641770 [mEh]       1.22139555 [kcal/mol]       5.11031898 [kJ/mol]
      Exch-Ind22                    0.18410569 [mEh]       0.11552807 [kcal/mol]       0.48336943 [kJ/mol]
      delta HF,r (2)               -0.29563005 [mEh]      -0.18551065 [kcal/mol]      -0.77617658 [kJ/mol]

    Dispersion                     -0.57131650 [mEh]      -0.35850651 [kcal/mol]      -1.49999125 [kJ/mol]
      Disp20                       -0.67353731 [mEh]      -0.42265104 [kcal/mol]      -1.76837196 [kJ/mol]
      Disp21                        0.14148297 [mEh]       0.08878190 [kcal/mol]       0.37146349 [kJ/mol]
      Disp22 (SDQ)                 -0.01170271 [mEh]      -0.00734356 [kcal/mol]      -0.03072545 [kJ/mol]
      Disp22 (T)                   -0.06730989 [mEh]      -0.04223759 [kcal/mol]      -0.17672209 [kJ/mol]
      Est. Disp22 (T)              -0.07164444 [mEh]      -0.04495757 [kcal/mol]      -0.18810246 [kJ/mol]
      Exch-Disp20                   0.04408499 [mEh]       0.02766375 [kcal/mol]       0.11574512 [kJ/mol]

  Total HF                        -24.03948495 [mEh]     -15.08500455 [kcal/mol]     -63.11565905 [kJ/mol]
  Total SAPT0                     -24.66893728 [mEh]     -15.47999185 [kcal/mol]     -64.76828589 [kJ/mol]
  Total SAPT2                     -24.99067370 [mEh]     -15.68188451 [kcal/mol]     -65.61300477 [kJ/mol]
  Total SAPT2+                    -24.93253788 [mEh]     -15.64540373 [kcal/mol]     -65.46036919 [kJ/mol]

  Special recipe for scaled SAPT0 (see Manual):
    Electrostatics sSAPT0         -19.44575593 [mEh]     -12.20239607 [kcal/mol]     -51.05482515 [kJ/mol]
    Exchange sSAPT0                 0.91645279 [mEh]       0.57508281 [kcal/mol]       2.40614648 [kJ/mol]
    Induction sSAPT0               -5.50719028 [mEh]      -3.45581408 [kcal/mol]     -14.45912610 [kJ/mol]
    Dispersion sSAPT0              -0.62938456 [mEh]      -0.39494478 [kcal/mol]      -1.65244895 [kJ/mol]
  Total sSAPT0                    -24.66587798 [mEh]     -15.47807211 [kcal/mol]     -64.76025373 [kJ/mol]
  --------------------------------------------------------------------------------------------------------

*** Psi4 exiting successfully. Buy a developer a beer!
