                               Psi4 1.9 release

  ==> Input File <==

--------------------------------------------------------------------------
MEMORY 60 GB

molecule dimer {
0 1
Br     0.000000     0.000000     0.000000
K      0.000000     2.788700     0.000000
--
1 1
K      3.904180     0.000000     0.000000

units ang
no_reorient
no_com
symmetry c1
}

set {
basis        aug-cc-pVTZ
scf_type     df
}

energy("sapt2+")
--------------------------------------------------------------------------

  //              Dimer HF             //
    Molecular point group: c1
  Charge       = 1
  Multiplicity = 1
  Basis Set: AUG-CC-PVTZ
    Blend: AUG-CC-PVTZ
  Basis Set: (AUG-CC-PVTZ AUX)
    Blend: AUG-CC-PVTZ-JKFIT + DEF2-UNIVERSAL-JKFIT
  @DF-RHF Final Energy: -3770.76593474515084
    Total Energy =                      -3770.7659347451512986
 Dipole X            :       -133.5143802          140.1787879            6.6644077
 Dipole Y            :        -95.8068356          100.1277057            4.3208701
 Dipole Z            :         -0.0000000            0.0000000           -0.0000000
 Magnitude           :                                                    7.9425593
  //            Monomer A HF           //
    Molecular point group: c1
  Multiplicity = 1
  Basis Set: AUG-CC-PVTZ
    Blend: AUG-CC-PVTZ
  Basis Set: (AUG-CC-PVTZ AUX)
    Blend: AUG-CC-PVTZ-JKFIT + DEF2-UNIVERSAL-JKFIT
  @DF-RHF Final Energy: -3171.72018271960269
    Total Energy =                      -3171.7201827196031445
  //            Monomer B HF           //
    Molecular point group: c1

    Geometry (in Angstrom), charge = 1, multiplicity = 1:

       Center              X                  Y                   Z               Mass
    ------------   -----------------  -----------------  -----------------  -----------------
      Gh(BR)          0.000000000000     0.000000000000     0.000000000000    78.918337600000
      Gh(K)           0.000000000000     2.788700000000     0.000000000000    38.963706486400
         K            3.904180000000     0.000000000000     0.000000000000    38.963706486400

  Charge       = 1
  Multiplicity = 1
  Basis Set: AUG-CC-PVTZ
    Blend: AUG-CC-PVTZ
  Basis Set: (AUG-CC-PVTZ AUX)
    Blend: AUG-CC-PVTZ-JKFIT + DEF2-UNIVERSAL-JKFIT

    Orbital Energies [Eh]
    ---------------------

    Doubly Occupied:

       1A   -133.753686     2A    -14.709152     3A    -11.739217
       4A    -11.739213     5A    -11.739212     6A     -1.964342
       7A     -1.170957     8A     -1.170922     9A     -1.170916

  @DF-RHF Final Energy:  -599.01750777479526

   => Energetics <=

    Nuclear Repulsion Energy =              0.0000000000000000
    One-Electron Energy =                -819.7197883776840399
    Two-Electron Energy =                 220.7022806028887203
    Total Energy =                       -599.0175077747953765
 Dipole X            :       -132.8013135          140.1787879            7.3774745
 Dipole Y            :          0.0000616            0.0000000            0.0000616
 Dipole Z            :         -0.0000000            0.0000000           -0.0000000
 Magnitude           :                                                    7.3774745

    SAPT Results
  --------------------------------------------------------------------------------------------------------
    Electrostatics                -23.30979000 [mEh]     -14.62711405 [kcal/mol]     -61.19984520 [kJ/mol]
      Elst10,r                    -23.38129284 [mEh]     -14.67198277 [kcal/mol]     -61.38757590 [kJ/mol]
      Elst12,r                      0.07150285 [mEh]       0.04486871 [kcal/mol]       0.18773070 [kJ/mol]

    Exchange                        2.25343737 [mEh]       1.41405330 [kcal/mol]       5.91639899 [kJ/mol]
      Exch10                        2.06360873 [mEh]       1.29493403 [kcal/mol]       5.41800398 [kJ/mol]
      Exch10(S^2)                   2.06130515 [mEh]       1.29348851 [kcal/mol]       5.41195592 [kJ/mol]
      Exch11(S^2)                   0.01008922 [mEh]       0.00633108 [kcal/mol]       0.02648923 [kJ/mol]
      Exch12(S^2)                   0.17973942 [mEh]       0.11278819 [kcal/mol]       0.47190578 [kJ/mol]

    Induction                      -7.56834623 [mEh]      -4.74920896 [kcal/mol]     -19.87069029 [kJ/mol]
      Ind20,r                     -10.99169409 [mEh]      -6.89739217 [kcal/mol]     -28.85868885 [kJ/mol]
      Ind22                        -1.05249208 [mEh]      -0.66044875 [kcal/mol]      -2.76331758 [kJ/mol]
      Exch-Ind20,r                  4.28927322 [mEh]       2.69155958 [kcal/mol]      11.26148528 [kJ/mol]
      Exch-Ind22                    0.41071249 [mEh]       0.25772598 [kcal/mol]       1.07832551 [kJ/mol]
      delta HF,r (2)               -0.22414577 [mEh]      -0.14065359 [kcal/mol]      -0.58849464 [kJ/mol]

    Dispersion                     -0.86770824 [mEh]      -0.54449514 [kcal/mol]      -2.27816766 [kJ/mol]
      Disp20                       -1.05104848 [mEh]      -0.65954288 [kcal/mol]      -2.75952740 [kJ/mol]
      Disp21                        0.21305180 [mEh]       0.13369202 [kcal/mol]       0.55936743 [kJ/mol]
      Disp22 (SDQ)                 -0.01513273 [mEh]      -0.00949593 [kcal/mol]      -0.03973099 [kJ/mol]
      Disp22 (T)                   -0.10255357 [mEh]      -0.06435334 [kcal/mol]      -0.26925435 [kJ/mol]
      Est. Disp22 (T)              -0.11046326 [mEh]      -0.06931674 [kcal/mol]      -0.29002124 [kJ/mol]
      Exch-Disp20                   0.09588443 [mEh]       0.06016839 [kcal/mol]       0.25174453 [kJ/mol]

  Total HF                        -28.24425075 [mEh]     -17.72353493 [kcal/mol]     -74.15527014 [kJ/mol]
  Total SAPT0                     -29.19941480 [mEh]     -18.32290942 [kcal/mol]     -76.66305300 [kJ/mol]
  Total SAPT2                     -29.57986291 [mEh]     -18.56164421 [kcal/mol]     -77.66191936 [kJ/mol]
  Total SAPT2+                    -29.49240710 [mEh]     -18.50676486 [kcal/mol]     -77.43230416 [kJ/mol]

  Special recipe for scaled SAPT0 (see Manual):
    Electrostatics sSAPT0         -23.38129284 [mEh]     -14.67198277 [kcal/mol]     -61.38757590 [kJ/mol]
    Exchange sSAPT0                 2.06360873 [mEh]       1.29493403 [kcal/mol]       5.41800398 [kJ/mol]
    Induction sSAPT0               -6.91217031 [mEh]      -4.33745236 [kcal/mol]     -18.14790066 [kJ/mol]
    Dispersion sSAPT0              -0.95484223 [mEh]      -0.59917254 [kcal/mol]      -2.50693792 [kJ/mol]
  Total sSAPT0                    -29.18469665 [mEh]     -18.31367364 [kcal/mol]     -76.62441051 [kJ/mol]
  --------------------------------------------------------------------------------------------------------

*** Psi4 exiting successfully. Buy a developer a beer!
