                               Psi4 1.9 release

  ==> Input File <==

--------------------------------------------------------------------------
MEMORY 60 GB

molecule dimer {
0 1
K      0.000000     0.000000     0.000000
Br     0.000000     2.788700     0.000000
--
-1 1
Br     5.577400     0.000000     0.000000

units ang
no_reorient
no_com
symmetry c1
}

set {
basis        aug-cc-pVTZ
scf_type     df
}

energy("sapt2+")
--------------------------------------------------------------------------

  //              Dimer HF             //
    Molecular point group: c1
  Charge       = -1
  Multiplicity = 1
  Basis Set: AUG-CC-PVTZ
    Blend: AUG-CC-PVTZ
  Basis Set: (AUG-CC-PVTZ AUX)
    Blend: AUG-CC-PVTZ-JKFIT + DEF2-UNIVERSAL-JKFIT
  @DF-RHF Final Energy: -5744.26287054208115
    Total Energy =                      -5744.2628705420802362
 Dipole X            :       -379.0689893          368.8915472          -10.1774420
 Dipole Y            :       -188.7219478          184.4457736           -4.2761742
 Dipole Z            :          0.0000000            0.0000000            0.0000000
 Magnitude           :                                                   11.0392931
  //            Monomer A HF           //
    Molecular point group: c1
  Multiplicity = 1
  Basis Set: AUG-CC-PVTZ
    Blend: AUG-CC-PVTZ
  Basis Set: (AUG-CC-PVTZ AUX)
    Blend: AUG-CC-PVTZ-JKFIT + DEF2-UNIVERSAL-JKFIT
  @DF-RHF Final Energy: -3171.72013804549306
    Total Energy =                      -3171.7201380454930586
  //            Monomer B HF           //
    Molecular point group: c1

    Geometry (in Angstrom), charge = -1, multiplicity = 1:

       Center              X                  Y                   Z               Mass
    ------------   -----------------  -----------------  -----------------  -----------------
      Gh(K)           0.000000000000     0.000000000000     0.000000000000    38.963706486400
      Gh(BR)          0.000000000000     2.788700000000     0.000000000000    78.918337600000
         BR           5.577400000000     0.000000000000     0.000000000000    78.918337600000

  Charge       = -1
  Multiplicity = 1
  Basis Set: AUG-CC-PVTZ
    Blend: AUG-CC-PVTZ
  Basis Set: (AUG-CC-PVTZ AUX)
    Blend: AUG-CC-PVTZ-JKFIT + DEF2-UNIVERSAL-JKFIT

    Orbital Energies [Eh]
    ---------------------

    Doubly Occupied:

       1A   -489.720430     2A    -64.860498     3A    -58.214971
       4A    -58.214971     5A    -58.214970     6A     -9.532868
       7A     -7.140212     8A     -7.140212     9A     -7.140210
      10A     -2.881880    11A     -2.881880    12A     -2.881878
      13A     -2.881878    14A     -2.881875    15A     -0.686004
      16A     -0.139342    17A     -0.139342    18A     -0.139341

  @DF-RHF Final Energy: -2572.53366988963035

   => Energetics <=

    Nuclear Repulsion Energy =              0.0000000000000000
    One-Electron Energy =               -3593.6818146056752994
    Two-Electron Energy =                1021.1481447160447260
    Total Energy =                      -2572.5336698896308008
 Dipole X            :       -379.4314170          368.8915472          -10.5398697
 Dipole Y            :         -0.0000233            0.0000000           -0.0000233
 Dipole Z            :         -0.0000000            0.0000000           -0.0000000
 Magnitude           :                                                   10.5398697

    SAPT Results
  --------------------------------------------------------------------------------------------------------
    Electrostatics                 -7.57717041 [mEh]      -4.75474622 [kcal/mol]     -19.89385817 [kJ/mol]
      Elst10,r                     -7.73223084 [mEh]      -4.85204810 [kcal/mol]     -20.30096927 [kJ/mol]
      Elst12,r                      0.15506043 [mEh]       0.09730189 [kcal/mol]       0.40711110 [kJ/mol]

    Exchange                        0.07575219 [mEh]       0.04753522 [kcal/mol]       0.19888735 [kJ/mol]
      Exch10                        0.05916512 [mEh]       0.03712667 [kcal/mol]       0.15533799 [kJ/mol]
      Exch10(S^2)                   0.05916063 [mEh]       0.03712386 [kcal/mol]       0.15532622 [kJ/mol]
      Exch11(S^2)                   0.00385341 [mEh]       0.00241805 [kcal/mol]       0.01011714 [kJ/mol]
      Exch12(S^2)                   0.01273366 [mEh]       0.00799049 [kcal/mol]       0.03343223 [kJ/mol]

    Induction                      -1.53334040 [mEh]      -0.96218563 [kcal/mol]      -4.02578467 [kJ/mol]
      Ind20,r                      -1.63795900 [mEh]      -1.02783479 [kcal/mol]      -4.30046077 [kJ/mol]
      Ind22                        -0.15952090 [mEh]      -0.10010087 [kcal/mol]      -0.41882206 [kJ/mol]
      Exch-Ind20,r                  0.16143055 [mEh]       0.10129920 [kcal/mol]       0.42383585 [kJ/mol]
      Exch-Ind22                    0.01572173 [mEh]       0.00986553 [kcal/mol]       0.04127739 [kJ/mol]
      delta HF,r (2)                0.08698722 [mEh]       0.05458530 [kcal/mol]       0.22838491 [kJ/mol]

    Dispersion                     -0.35263637 [mEh]      -0.22128267 [kcal/mol]      -0.92584667 [kJ/mol]
      Disp20                       -0.36468167 [mEh]      -0.22884120 [kcal/mol]      -0.95747159 [kJ/mol]
      Disp21                        0.07716971 [mEh]       0.04842473 [kcal/mol]       0.20260906 [kJ/mol]
      Disp22 (SDQ)                 -0.01098684 [mEh]      -0.00689434 [kcal/mol]      -0.02884594 [kJ/mol]
      Disp22 (T)                   -0.06398989 [mEh]      -0.04015426 [kcal/mol]      -0.16800544 [kJ/mol]
      Est. Disp22 (T)              -0.06843391 [mEh]      -0.04294293 [kcal/mol]      -0.17967322 [kJ/mol]
      Exch-Disp20                   0.01429633 [mEh]       0.00897108 [kcal/mol]       0.03753501 [kJ/mol]

  Total HF                         -9.06260696 [mEh]      -5.68687172 [kcal/mol]     -23.79387129 [kJ/mol]
  Total SAPT0                      -9.41299230 [mEh]      -5.90674184 [kcal/mol]     -24.71380787 [kJ/mol]
  Total SAPT2                      -9.38514396 [mEh]      -5.88926675 [kcal/mol]     -24.64069208 [kJ/mol]
  Total SAPT2+                     -9.38739500 [mEh]      -5.89067929 [kcal/mol]     -24.64660217 [kJ/mol]

  Special recipe for scaled SAPT0 (see Manual):
    Electrostatics sSAPT0          -7.73223084 [mEh]      -4.85204810 [kcal/mol]     -20.30096927 [kJ/mol]
    Exchange sSAPT0                 0.05916512 [mEh]       0.03712667 [kcal/mol]       0.15533799 [kJ/mol]
    Induction sSAPT0               -1.38950453 [mEh]      -0.87192726 [kcal/mol]      -3.64814364 [kJ/mol]
    Dispersion sSAPT0              -0.35038209 [mEh]      -0.21986808 [kcal/mol]      -0.91992805 [kJ/mol]
  Total sSAPT0                     -9.41295234 [mEh]      -5.90671677 [kcal/mol]     -24.71370297 [kJ/mol]
  --------------------------------------------------------------------------------------------------------

*** Psi4 exiting successfully. Buy a developer a beer!
