                               Psi4 1.9 release

  ==> Input File <==

--------------------------------------------------------------------------
MEMORY 60 GB

molecule dimer {
0 1
K      0.000000     0.000000     0.000000
Br     0.000000     2.788700     0.000000
--
-1 1
Br     3.904180     0.000000     0.000000

units ang
no_reorient
no_com
symmetry c1
}

set {
basis        aug-cc-pVTZ
scf_type     df
}

energy("sapt2+")
--------------------------------------------------------------------------

  //              Dimer HF             //
    Molecular point group: c1
  Charge       = -1
  Multiplicity = 1
  Basis Set: AUG-CC-PVTZ
    Blend: AUG-CC-PVTZ
  Basis Set: (AUG-CC-PVTZ AUX)
    Blend: AUG-CC-PVTZ-JKFIT + DEF2-UNIVERSAL-JKFIT
  @DF-RHF Final Energy: -5744.27759563800737
    Total Energy =                      -5744.2775956380082789
 Dipole X            :       -264.9037529          258.2240831           -6.6796699
 Dipole Y            :       -188.7466609          184.4457736           -4.3008873
 Dipole Z            :          0.0000000            0.0000000            0.0000000
 Magnitude           :                                                    7.9445341
  //            Monomer A HF           //
    Molecular point group: c1
  Multiplicity = 1
  Basis Set: AUG-CC-PVTZ
    Blend: AUG-CC-PVTZ
  Basis Set: (AUG-CC-PVTZ AUX)
    Blend: AUG-CC-PVTZ-JKFIT + DEF2-UNIVERSAL-JKFIT
  @DF-RHF Final Energy: -3171.72016413111987
    Total Energy =                      -3171.7201641311198728
  //            Monomer B HF           //
    Molecular point group: c1

    Geometry (in Angstrom), charge = -1, multiplicity = 1:

       Center              X                  Y                   Z               Mass
    ------------   -----------------  -----------------  -----------------  -----------------
      Gh(K)           0.000000000000     0.000000000000     0.000000000000    38.963706486400
      Gh(BR)          0.000000000000     2.788700000000     0.000000000000    78.918337600000
         BR           3.904180000000     0.000000000000     0.000000000000    78.918337600000

  Charge       = -1
  Multiplicity = 1
  Basis Set: AUG-CC-PVTZ
    Blend: AUG-CC-PVTZ
  Basis Set: (AUG-CC-PVTZ AUX)
    Blend: AUG-CC-PVTZ-JKFIT + DEF2-UNIVERSAL-JKFIT

    Orbital Energies [Eh]
    ---------------------

    Doubly Occupied:

       1A   -489.720616     2A    -64.860631     3A    -58.215111
       4A    -58.215110     5A    -58.215110     6A     -9.532909
       7A     -7.140253     8A     -7.140252     9A     -7.140247
      10A     -2.881924    11A     -2.881923    12A     -2.881923
      13A     -2.881922    14A     -2.881919    15A     -0.686002
      16A     -0.139343    17A     -0.139339    18A     -0.139339

  @DF-RHF Final Energy: -2572.53367600913680

   => Energetics <=

    Nuclear Repulsion Energy =              0.0000000000000000
    One-Electron Energy =               -3593.6796036280470616
    Two-Electron Energy =                1021.1459276189103775
    Total Energy =                      -2572.5336760091367978
 Dipole X            :       -265.6022307          258.2240831           -7.3781477
 Dipole Y            :          0.0000070            0.0000000            0.0000070
 Dipole Z            :         -0.0000000            0.0000000           -0.0000000
 Magnitude           :                                                    7.3781477

    SAPT Results
  --------------------------------------------------------------------------------------------------------
    Electrostatics                -21.53491945 [mEh]     -13.51336597 [kcal/mol]     -56.53992323 [kJ/mol]
      Elst10,r                    -21.50309406 [mEh]     -13.49339524 [kcal/mol]     -56.45636569 [kJ/mol]
      Elst12,r                     -0.03182539 [mEh]      -0.01997073 [kcal/mol]      -0.08355754 [kJ/mol]

    Exchange                        4.00296550 [mEh]       2.51189877 [kcal/mol]      10.50978447 [kJ/mol]
      Exch10                        3.46724754 [mEh]       2.17573068 [kcal/mol]       9.10325715 [kJ/mol]
      Exch10(S^2)                   3.45831377 [mEh]       2.17012466 [kcal/mol]       9.07980156 [kJ/mol]
      Exch11(S^2)                   0.12721281 [mEh]       0.07982724 [kcal/mol]       0.33399719 [kJ/mol]
      Exch12(S^2)                   0.40850515 [mEh]       0.25634085 [kcal/mol]       1.07253013 [kJ/mol]

    Induction                      -6.45932697 [mEh]      -4.05328887 [kcal/mol]     -16.95896061 [kJ/mol]
      Ind20,r                     -14.20448688 [mEh]      -8.91345009 [kcal/mol]     -37.29387517 [kJ/mol]
      Ind22                        -1.82812962 [mEh]      -1.14716866 [kcal/mol]      -4.79975366 [kJ/mol]
      Exch-Ind20,r                  8.45723883 [mEh]       5.30699749 [kcal/mol]      22.20447749 [kJ/mol]
      Exch-Ind22                    1.08845388 [mEh]       0.68301512 [kcal/mol]       2.85773526 [kJ/mol]
      delta HF,r (2)                0.02759683 [mEh]       0.01731727 [kcal/mol]       0.07245546 [kJ/mol]

    Dispersion                     -2.31530357 [mEh]      -1.45287492 [kcal/mol]      -6.07882868 [kJ/mol]
      Disp20                       -2.74117102 [mEh]      -1.72011078 [kcal/mol]      -7.19694352 [kJ/mol]
      Disp21                        0.50983816 [mEh]       0.31992828 [kcal/mol]       1.33857991 [kJ/mol]
      Disp22 (SDQ)                 -0.06448249 [mEh]      -0.04046337 [kcal/mol]      -0.16929875 [kJ/mol]
      Disp22 (T)                   -0.41065310 [mEh]      -0.25768871 [kcal/mol]      -1.07816958 [kJ/mol]
      Est. Disp22 (T)              -0.45924393 [mEh]      -0.28817991 [kcal/mol]      -1.20574476 [kJ/mol]
      Exch-Disp20                   0.43975571 [mEh]       0.27595087 [kcal/mol]       1.15457844 [kJ/mol]

  Total HF                        -23.75549775 [mEh]     -14.90679989 [kcal/mol]     -62.37005075 [kJ/mol]
  Total SAPT0                     -26.05691307 [mEh]     -16.35095981 [kcal/mol]     -68.41241583 [kJ/mol]
  Total SAPT2                     -26.29269623 [mEh]     -16.49891598 [kcal/mol]     -69.03146445 [kJ/mol]
  Total SAPT2+                    -26.30658449 [mEh]     -16.50763099 [kcal/mol]     -69.06792806 [kJ/mol]

  Special recipe for scaled SAPT0 (see Manual):
    Electrostatics sSAPT0         -21.50309406 [mEh]     -13.49339524 [kcal/mol]     -56.45636569 [kJ/mol]
    Exchange sSAPT0                 3.46724754 [mEh]       2.17573068 [kcal/mol]       9.10325715 [kJ/mol]
    Induction sSAPT0               -5.65393974 [mEh]      -3.54790075 [kcal/mol]     -14.84441674 [kJ/mol]
    Dispersion sSAPT0              -2.29799848 [mEh]      -1.44201582 [kcal/mol]      -6.03339417 [kJ/mol]
  Total sSAPT0                    -25.98778475 [mEh]     -16.30758113 [kcal/mol]     -68.23091945 [kJ/mol]
  --------------------------------------------------------------------------------------------------------

*** Psi4 exiting successfully. Buy a developer a beer!
