                               Psi4 1.9 release

  ==> Input File <==

--------------------------------------------------------------------------
MEMORY 60 GB

molecule dimer {
0 1
K      0.000000     0.000000     0.000000
Br     0.000000     2.788700     0.000000
--
-1 1
Br     3.067570     0.000000     0.000000

units ang
no_reorient
no_com
symmetry c1
}

set {
basis        aug-cc-pVTZ
scf_type     df
}

energy("sapt2+")
--------------------------------------------------------------------------

  //              Dimer HF             //
    Molecular point group: c1
  Charge       = -1
  Multiplicity = 1
  Basis Set: AUG-CC-PVTZ
    Blend: AUG-CC-PVTZ
  Basis Set: (AUG-CC-PVTZ AUX)
    Blend: AUG-CC-PVTZ-JKFIT + DEF2-UNIVERSAL-JKFIT
  @DF-RHF Final Energy: -5744.28510778221425
    Total Energy =                      -5744.2851077822142543
 Dipole X            :       -207.8182004          202.8903510           -4.9278494
 Dipole Y            :       -188.7962816          184.4457736           -4.3505080
 Dipole Z            :          0.0000000            0.0000000            0.0000000
 Magnitude           :                                                    6.5734785
  //            Monomer A HF           //
    Molecular point group: c1
  Multiplicity = 1
  Basis Set: AUG-CC-PVTZ
    Blend: AUG-CC-PVTZ
  Basis Set: (AUG-CC-PVTZ AUX)
    Blend: AUG-CC-PVTZ-JKFIT + DEF2-UNIVERSAL-JKFIT
  @DF-RHF Final Energy: -3171.72018240218677
    Total Energy =                      -3171.7201824021867651
  //            Monomer B HF           //
    Molecular point group: c1

    Geometry (in Angstrom), charge = -1, multiplicity = 1:

       Center              X                  Y                   Z               Mass
    ------------   -----------------  -----------------  -----------------  -----------------
      Gh(K)           0.000000000000     0.000000000000     0.000000000000    38.963706486400
      Gh(BR)          0.000000000000     2.788700000000     0.000000000000    78.918337600000
         BR           3.067570000000     0.000000000000     0.000000000000    78.918337600000

  Charge       = -1
  Multiplicity = 1
  Basis Set: AUG-CC-PVTZ
    Blend: AUG-CC-PVTZ
  Basis Set: (AUG-CC-PVTZ AUX)
    Blend: AUG-CC-PVTZ-JKFIT + DEF2-UNIVERSAL-JKFIT

    Orbital Energies [Eh]
    ---------------------

    Doubly Occupied:

       1A   -489.720791     2A    -64.860749     3A    -58.215237
       4A    -58.215236     5A    -58.215235     6A     -9.532943
       7A     -7.140289     8A     -7.140287     9A     -7.140277
      10A     -2.881964    11A     -2.881963    12A     -2.881962
      13A     -2.881961    14A     -2.881959    15A     -0.686000
      16A     -0.139341    17A     -0.139339    18A     -0.139338

  @DF-RHF Final Energy: -2572.53368106648213

   => Energetics <=

    Nuclear Repulsion Energy =              0.0000000000000000
    One-Electron Energy =               -3593.6776146887177674
    Two-Electron Energy =                1021.1439336222356360
    Total Energy =                      -2572.5336810664821314
 Dipole X            :       -208.6877444          202.8903510           -5.7973934
 Dipole Y            :          0.0000510            0.0000000            0.0000510
 Dipole Z            :         -0.0000000            0.0000000           -0.0000000
 Magnitude           :                                                    5.7973934

    SAPT Results
  --------------------------------------------------------------------------------------------------------
    Electrostatics                -49.64229992 [mEh]     -31.15101350 [kcal/mol]    -130.33584048 [kJ/mol]
      Elst10,r                    -48.51322010 [mEh]     -30.44250522 [kcal/mol]    -127.37144183 [kJ/mol]
      Elst12,r                     -1.12907982 [mEh]      -0.70850828 [kcal/mol]      -2.96439865 [kJ/mol]

    Exchange                       32.10842799 [mEh]      20.14834275 [kcal/mol]      84.30066607 [kJ/mol]
      Exch10                       29.80046056 [mEh]      18.70007132 [kcal/mol]      78.24109841 [kJ/mol]
      Exch10(S^2)                  29.34071912 [mEh]      18.41157922 [kcal/mol]      77.03404744 [kJ/mol]
      Exch11(S^2)                   0.40739597 [mEh]       0.25564483 [kcal/mol]       1.06961797 [kJ/mol]
      Exch12(S^2)                   1.90057146 [mEh]       1.19262660 [kcal/mol]       4.98994968 [kJ/mol]

    Induction                     -13.95263525 [mEh]      -8.75541080 [kcal/mol]     -36.63263880 [kJ/mol]
      Ind20,r                     -78.36722799 [mEh]     -49.17617799 [kcal/mol]    -205.75312873 [kJ/mol]
      Ind22                        -8.63111389 [mEh]      -5.41610574 [kcal/mol]     -22.66098640 [kJ/mol]
      Exch-Ind20,r                 65.46435129 [mEh]      41.07950063 [kcal/mol]     171.87663062 [kJ/mol]
      Exch-Ind22                    7.21003264 [mEh]       4.52436379 [kcal/mol]      18.92993809 [kJ/mol]
      delta HF,r (2)                0.37132270 [mEh]       0.23300851 [kcal/mol]       0.97490761 [kJ/mol]

    Dispersion                     -6.47993188 [mEh]      -4.06621865 [kcal/mol]     -17.01305882 [kJ/mol]
      Disp20                       -9.12399487 [mEh]      -5.72539322 [kcal/mol]     -23.95504523 [kJ/mol]
      Disp21                        1.72033584 [mEh]       1.07952704 [kcal/mol]       4.51674114 [kJ/mol]
      Disp22 (SDQ)                 -0.12802267 [mEh]      -0.08033544 [kcal/mol]      -0.33612346 [kJ/mol]
      Disp22 (T)                   -1.18814970 [mEh]      -0.74557519 [kcal/mol]      -3.11948661 [kJ/mol]
      Est. Disp22 (T)              -1.31595128 [mEh]      -0.82577190 [kcal/mol]      -3.45502962 [kJ/mol]
      Exch-Disp20                   2.36770109 [mEh]       1.48575486 [kcal/mol]       6.21639835 [kJ/mol]

  Total HF                        -31.24431355 [mEh]     -19.60610275 [kcal/mol]     -82.03193391 [kJ/mol]
  Total SAPT0                     -38.00060732 [mEh]     -23.84574111 [kcal/mol]     -99.77058078 [kJ/mol]
  Total SAPT2                     -38.24280096 [mEh]     -23.99771991 [kcal/mol]    -100.40646008 [kJ/mol]
  Total SAPT2+                    -37.96643906 [mEh]     -23.82430020 [kcal/mol]     -99.68087203 [kJ/mol]

  Special recipe for scaled SAPT0 (see Manual):
    Electrostatics sSAPT0         -48.51322010 [mEh]     -30.44250522 [kcal/mol]    -127.37144183 [kJ/mol]
    Exchange sSAPT0                29.80046056 [mEh]      18.70007132 [kcal/mol]      78.24109841 [kJ/mol]
    Induction sSAPT0               -9.40578966 [mEh]      -5.90222212 [kcal/mol]     -24.69489735 [kJ/mol]
    Dispersion sSAPT0              -6.64324178 [mEh]      -4.16869715 [kcal/mol]     -17.44182890 [kJ/mol]
  Total sSAPT0                    -34.76179099 [mEh]     -21.81335317 [kcal/mol]     -91.26706967 [kJ/mol]
  --------------------------------------------------------------------------------------------------------

*** Psi4 exiting successfully. Buy a developer a beer!
