                               Psi4 1.9 release

  ==> Input File <==

--------------------------------------------------------------------------
MEMORY 60 GB

molecule dimer {
0 1
K      0.000000     0.000000     0.000000
Br     0.000000     2.788700     0.000000
--
-1 1
Br     4.183050     0.000000     0.000000

units ang
no_reorient
no_com
symmetry c1
}

set {
basis        aug-cc-pVTZ
scf_type     df
}

energy("sapt2+")
--------------------------------------------------------------------------

  //              Dimer HF             //
    Molecular point group: c1
  Charge       = -1
  Multiplicity = 1
  Basis Set: AUG-CC-PVTZ
    Blend: AUG-CC-PVTZ
  Basis Set: (AUG-CC-PVTZ AUX)
    Blend: AUG-CC-PVTZ-JKFIT + DEF2-UNIVERSAL-JKFIT
  @DF-RHF Final Energy: -5744.27403661157859
    Total Energy =                      -5744.2740366115785946
 Dipole X            :       -283.9427348          276.6686604           -7.2740743
 Dipole Y            :       -188.7374836          184.4457736           -4.2917100
 Dipole Z            :          0.0000000            0.0000000            0.0000000
 Magnitude           :                                                    8.4457641
  //            Monomer A HF           //
    Molecular point group: c1
  Multiplicity = 1
  Basis Set: AUG-CC-PVTZ
    Blend: AUG-CC-PVTZ
  Basis Set: (AUG-CC-PVTZ AUX)
    Blend: AUG-CC-PVTZ-JKFIT + DEF2-UNIVERSAL-JKFIT
  @DF-RHF Final Energy: -3171.72015959199462
    Total Energy =                      -3171.7201595919946158
  //            Monomer B HF           //
    Molecular point group: c1

    Geometry (in Angstrom), charge = -1, multiplicity = 1:

       Center              X                  Y                   Z               Mass
    ------------   -----------------  -----------------  -----------------  -----------------
      Gh(K)           0.000000000000     0.000000000000     0.000000000000    38.963706486400
      Gh(BR)          0.000000000000     2.788700000000     0.000000000000    78.918337600000
         BR           4.183050000000     0.000000000000     0.000000000000    78.918337600000

  Charge       = -1
  Multiplicity = 1
  Basis Set: AUG-CC-PVTZ
    Blend: AUG-CC-PVTZ
  Basis Set: (AUG-CC-PVTZ AUX)
    Blend: AUG-CC-PVTZ-JKFIT + DEF2-UNIVERSAL-JKFIT

    Orbital Energies [Eh]
    ---------------------

    Doubly Occupied:

       1A   -489.720567     2A    -64.860597     3A    -58.215075
       4A    -58.215075     5A    -58.215074     6A     -9.532898
       7A     -7.140243     8A     -7.140242     9A     -7.140238
      10A     -2.881913    11A     -2.881913    12A     -2.881912
      13A     -2.881911    14A     -2.881907    15A     -0.686002
      16A     -0.139342    17A     -0.139340    18A     -0.139339

  @DF-RHF Final Energy: -2572.53367467301177

   => Energetics <=

    Nuclear Repulsion Energy =              0.0000000000000000
    One-Electron Energy =               -3593.6801681767974515
    Two-Electron Energy =                1021.1464935037854502
    Total Energy =                      -2572.5336746730117738
 Dipole X            :       -284.5737882          276.6686604           -7.9051277
 Dipole Y            :         -0.0000275            0.0000000           -0.0000275
 Dipole Z            :         -0.0000000            0.0000000           -0.0000000
 Magnitude           :                                                    7.9051277

    SAPT Results
  --------------------------------------------------------------------------------------------------------
    Electrostatics                -17.32494939 [mEh]     -10.87156987 [kcal/mol]     -45.48664836 [kJ/mol]
      Elst10,r                    -17.39649631 [mEh]     -10.91646624 [kcal/mol]     -45.67449476 [kJ/mol]
      Elst12,r                      0.07154692 [mEh]       0.04489637 [kcal/mol]       0.18784641 [kJ/mol]

    Exchange                        2.03636175 [mEh]       1.27783629 [kcal/mol]       5.34646703 [kJ/mol]
      Exch10                        1.72947534 [mEh]       1.08526216 [kcal/mol]       4.54073688 [kJ/mol]
      Exch10(S^2)                   1.72698820 [mEh]       1.08370146 [kcal/mol]       4.53420690 [kJ/mol]
      Exch11(S^2)                   0.07380602 [mEh]       0.04631398 [kcal/mol]       0.19377767 [kJ/mol]
      Exch12(S^2)                   0.23308039 [mEh]       0.14626015 [kcal/mol]       0.61195248 [kJ/mol]

    Induction                      -5.11240398 [mEh]      -3.20808193 [kcal/mol]     -13.42261479 [kJ/mol]
      Ind20,r                      -8.83076108 [mEh]      -5.54138624 [kcal/mol]     -23.18516001 [kJ/mol]
      Ind22                        -1.12876529 [mEh]      -0.70831091 [kcal/mol]      -2.96357286 [kJ/mol]
      Exch-Ind20,r                  4.31605703 [mEh]       2.70836668 [kcal/mol]      11.33180618 [kJ/mol]
      Exch-Ind22                    0.55168692 [mEh]       0.34618877 [kcal/mol]       1.44845381 [kJ/mol]
      delta HF,r (2)               -0.02062156 [mEh]      -0.01294023 [kcal/mol]      -0.05414191 [kJ/mol]

    Dispersion                     -1.66808156 [mEh]      -1.04673698 [kcal/mol]      -4.37954752 [kJ/mol]
      Disp20                       -1.89640979 [mEh]      -1.19001511 [kcal/mol]      -4.97902322 [kJ/mol]
      Disp21                        0.35516221 [mEh]       0.22286765 [kcal/mol]       0.93247826 [kJ/mol]
      Disp22 (SDQ)                 -0.04899196 [mEh]      -0.03074292 [kcal/mol]      -0.12862838 [kJ/mol]
      Disp22 (T)                   -0.29484183 [mEh]      -0.18501604 [kcal/mol]      -0.77410712 [kJ/mol]
      Est. Disp22 (T)              -0.32814429 [mEh]      -0.20591365 [kcal/mol]      -0.86154271 [kJ/mol]
      Exch-Disp20                   0.25030227 [mEh]       0.15706705 [kcal/mol]       0.65716853 [kJ/mol]

  Total HF                        -20.20234657 [mEh]     -12.67716387 [kcal/mol]     -53.04125362 [kJ/mol]
  Total SAPT0                     -21.84845409 [mEh]     -13.71011193 [kcal/mol]     -57.36310831 [kJ/mol]
  Total SAPT2                     -22.04709914 [mEh]     -13.83476358 [kcal/mol]     -57.88465081 [kJ/mol]
  Total SAPT2+                    -22.06907317 [mEh]     -13.84855249 [kcal/mol]     -57.94234363 [kJ/mol]

  Special recipe for scaled SAPT0 (see Manual):
    Electrostatics sSAPT0         -17.39649631 [mEh]     -10.91646624 [kcal/mol]     -45.67449476 [kJ/mol]
    Exchange sSAPT0                 1.72947534 [mEh]       1.08526216 [kcal/mol]       4.54073688 [kJ/mol]
    Induction sSAPT0               -4.51665133 [mEh]      -2.83424150 [kcal/mol]     -11.85846642 [kJ/mol]
    Dispersion sSAPT0              -1.64502454 [mEh]      -1.03226848 [kcal/mol]      -4.31901132 [kJ/mol]
  Total sSAPT0                    -21.82869683 [mEh]     -13.69771406 [kcal/mol]     -57.31123563 [kJ/mol]
  --------------------------------------------------------------------------------------------------------

*** Psi4 exiting successfully. Buy a developer a beer!
