                               Psi4 1.9 release

  ==> Input File <==

--------------------------------------------------------------------------
MEMORY 60 GB

molecule dimer {
0 1
K      0.000000     0.000000     0.000000
Br     0.000000     2.788700     0.000000
--
-1 1
Br     2.788700     0.000000     0.000000

units ang
no_reorient
no_com
symmetry c1
}

set {
basis        aug-cc-pVTZ
scf_type     df
}

energy("sapt2+")
--------------------------------------------------------------------------

  //              Dimer HF             //
    Molecular point group: c1
  Charge       = -1
  Multiplicity = 1
  Basis Set: AUG-CC-PVTZ
    Blend: AUG-CC-PVTZ
  Basis Set: (AUG-CC-PVTZ AUX)
    Blend: AUG-CC-PVTZ-JKFIT + DEF2-UNIVERSAL-JKFIT
  @DF-RHF Final Energy: -5744.27837179419112
    Total Energy =                      -5744.2783717941911164
 Dipole X            :       -188.8190367          184.4457736           -4.3732630
 Dipole Y            :       -188.8190367          184.4457736           -4.3732630
 Dipole Z            :          0.0000000            0.0000000            0.0000000
 Magnitude           :                                                    6.1847279
  //            Monomer A HF           //
    Molecular point group: c1
  Multiplicity = 1
  Basis Set: AUG-CC-PVTZ
    Blend: AUG-CC-PVTZ
  Basis Set: (AUG-CC-PVTZ AUX)
    Blend: AUG-CC-PVTZ-JKFIT + DEF2-UNIVERSAL-JKFIT
  @DF-RHF Final Energy: -3171.72020456431301
    Total Energy =                      -3171.7202045643130077
  //            Monomer B HF           //
    Molecular point group: c1

    Geometry (in Angstrom), charge = -1, multiplicity = 1:

       Center              X                  Y                   Z               Mass
    ------------   -----------------  -----------------  -----------------  -----------------
      Gh(K)           0.000000000000     0.000000000000     0.000000000000    38.963706486400
      Gh(BR)          0.000000000000     2.788700000000     0.000000000000    78.918337600000
         BR           2.788700000000     0.000000000000     0.000000000000    78.918337600000

  Charge       = -1
  Multiplicity = 1
  Basis Set: AUG-CC-PVTZ
    Blend: AUG-CC-PVTZ
  Basis Set: (AUG-CC-PVTZ AUX)
    Blend: AUG-CC-PVTZ-JKFIT + DEF2-UNIVERSAL-JKFIT

    Orbital Energies [Eh]
    ---------------------

    Doubly Occupied:

       1A   -489.720829     2A    -64.860778     3A    -58.215267
       4A    -58.215266     5A    -58.215265     6A     -9.532952
       7A     -7.140298     8A     -7.140295     9A     -7.140288
      10A     -2.881975    11A     -2.881974    12A     -2.881970
      13A     -2.881969    14A     -2.881967    15A     -0.685999
      16A     -0.139341    17A     -0.139339    18A     -0.139338

  @DF-RHF Final Energy: -2572.53368295140081

   => Energetics <=

    Nuclear Repulsion Energy =              0.0000000000000000
    One-Electron Energy =               -3593.6771479277622348
    Two-Electron Energy =                1021.1434649763613152
    Total Energy =                      -2572.5336829514008059
 Dipole X            :       -189.7163396          184.4457736           -5.2705660
 Dipole Y            :          0.0000457            0.0000000            0.0000457
 Dipole Z            :          0.0000000            0.0000000            0.0000000
 Magnitude           :                                                    5.2705660

    SAPT Results
  --------------------------------------------------------------------------------------------------------
    Electrostatics                -71.98355303 [mEh]     -45.17036148 [kcal/mol]    -188.99279243 [kJ/mol]
      Elst10,r                    -70.06103615 [mEh]     -43.96396393 [kcal/mol]    -183.94522507 [kJ/mol]
      Elst12,r                     -1.92251688 [mEh]      -1.20639755 [kcal/mol]      -5.04756736 [kJ/mol]

    Exchange                       66.04639719 [mEh]      41.44473994 [kcal/mol]     173.40479192 [kJ/mol]
      Exch10                       62.90327106 [mEh]      39.47239852 [kcal/mol]     165.15251540 [kJ/mol]
      Exch10(S^2)                  61.09636624 [mEh]      38.33854863 [kcal/mol]     160.40848746 [kJ/mol]
      Exch11(S^2)                   0.24009201 [mEh]       0.15066001 [kcal/mol]       0.63036148 [kJ/mol]
      Exch12(S^2)                   2.90303412 [mEh]       1.82168141 [kcal/mol]       7.62191504 [kJ/mol]

    Induction                     -19.31985696 [mEh]     -12.12339327 [kcal/mol]     -50.72427746 [kJ/mol]
      Ind20,r                    -150.76067875 [mEh]     -94.60375419 [kcal/mol]    -395.82210752 [kJ/mol]
      Ind22                       -14.87577995 [mEh]      -9.33469285 [kcal/mol]     -39.05635487 [kJ/mol]
      Exch-Ind20,r                130.55885862 [mEh]      81.92692067 [kcal/mol]     342.78223607 [kJ/mol]
      Exch-Ind22                   12.88243637 [mEh]       8.08385087 [kcal/mol]      33.82283203 [kJ/mol]
      delta HF,r (2)                2.87530675 [mEh]       1.80428222 [kcal/mol]       7.54911682 [kJ/mol]

    Dispersion                     -9.47071301 [mEh]      -5.94296214 [kcal/mol]     -24.86535358 [kJ/mol]
      Disp20                      -14.25802921 [mEh]      -8.94704841 [kcal/mol]     -37.43445054 [kJ/mol]
      Disp21                        2.71044314 [mEh]       1.70082875 [kcal/mol]       7.11626749 [kJ/mol]
      Disp22 (SDQ)                 -0.15254886 [mEh]      -0.09572586 [kcal/mol]      -0.40051699 [kJ/mol]
      Disp22 (T)                   -1.76178842 [mEh]      -1.10553893 [kcal/mol]      -4.62557486 [kJ/mol]
      Est. Disp22 (T)              -1.92362907 [mEh]      -1.20709546 [kcal/mol]      -5.05048742 [kJ/mol]
      Exch-Disp20                   4.15305099 [mEh]       2.60607884 [kcal/mol]      10.90383387 [kJ/mol]

  Total HF                        -24.48427848 [mEh]     -15.36411670 [kcal/mol]     -64.28346429 [kJ/mol]
  Total SAPT0                     -34.58925670 [mEh]     -21.70508627 [kcal/mol]     -90.81408095 [kJ/mol]
  Total SAPT2                     -35.36199102 [mEh]     -22.18998438 [kcal/mol]     -92.84289464 [kJ/mol]
  Total SAPT2+                    -34.72772581 [mEh]     -21.79197695 [kcal/mol]     -91.17763155 [kJ/mol]

  Special recipe for scaled SAPT0 (see Manual):
    Electrostatics sSAPT0         -70.06103615 [mEh]     -43.96396393 [kcal/mol]    -183.94522507 [kJ/mol]
    Exchange sSAPT0                62.90327106 [mEh]      39.47239852 [kcal/mol]     165.15251540 [kJ/mol]
    Induction sSAPT0               -5.39684673 [mEh]      -3.38657245 [kcal/mol]     -14.16941913 [kJ/mol]
    Dispersion sSAPT0              -9.72549793 [mEh]      -6.10284209 [kcal/mol]     -25.53429130 [kJ/mol]
  Total sSAPT0                    -22.28010975 [mEh]     -13.98097995 [kcal/mol]     -58.49642009 [kJ/mol]
  --------------------------------------------------------------------------------------------------------

*** Psi4 exiting successfully. Buy a developer a beer!
