                               Psi4 1.9 release

  ==> Input File <==

--------------------------------------------------------------------------
MEMORY 60 GB

molecule dimer {
0 1
K      0.000000     0.000000     0.000000
Br     0.000000     2.788700     0.000000
--
-1 1
Br     3.346440     0.000000     0.000000

units ang
no_reorient
no_com
symmetry c1
}

set {
basis        aug-cc-pVTZ
scf_type     df
}

energy("sapt2+")
--------------------------------------------------------------------------

  //              Dimer HF             //
    Molecular point group: c1
  Charge       = -1
  Multiplicity = 1
  Basis Set: AUG-CC-PVTZ
    Blend: AUG-CC-PVTZ
  Basis Set: (AUG-CC-PVTZ AUX)
    Blend: AUG-CC-PVTZ-JKFIT + DEF2-UNIVERSAL-JKFIT
  @DF-RHF Final Energy: -5744.28450581279685
    Total Energy =                      -5744.2845058127968514
 Dipole X            :       -226.8360886          221.3349283           -5.5011603
 Dipole Y            :       -188.7759304          184.4457736           -4.3301568
 Dipole Z            :          0.0000000            0.0000000            0.0000000
 Magnitude           :                                                    7.0009301
  //            Monomer A HF           //
    Molecular point group: c1
  Multiplicity = 1
  Basis Set: AUG-CC-PVTZ
    Blend: AUG-CC-PVTZ
  Basis Set: (AUG-CC-PVTZ AUX)
    Blend: AUG-CC-PVTZ-JKFIT + DEF2-UNIVERSAL-JKFIT
  @DF-RHF Final Energy: -3171.72017304375368
    Total Energy =                      -3171.7201730437536753
  //            Monomer B HF           //
    Molecular point group: c1

    Geometry (in Angstrom), charge = -1, multiplicity = 1:

       Center              X                  Y                   Z               Mass
    ------------   -----------------  -----------------  -----------------  -----------------
      Gh(K)           0.000000000000     0.000000000000     0.000000000000    38.963706486400
      Gh(BR)          0.000000000000     2.788700000000     0.000000000000    78.918337600000
         BR           3.346440000000     0.000000000000     0.000000000000    78.918337600000

  Charge       = -1
  Multiplicity = 1
  Basis Set: AUG-CC-PVTZ
    Blend: AUG-CC-PVTZ
  Basis Set: (AUG-CC-PVTZ AUX)
    Blend: AUG-CC-PVTZ-JKFIT + DEF2-UNIVERSAL-JKFIT

    Orbital Energies [Eh]
    ---------------------

    Doubly Occupied:

       1A   -489.720742     2A    -64.860716     3A    -58.215201
       4A    -58.215200     5A    -58.215199     6A     -9.532934
       7A     -7.140279     8A     -7.140278     9A     -7.140267
      10A     -2.881952    11A     -2.881951    12A     -2.881951
      13A     -2.881950    14A     -2.881949    15A     -0.686001
      16A     -0.139342    17A     -0.139339    18A     -0.139338

  @DF-RHF Final Energy: -2572.53367936339964

   => Energetics <=

    Nuclear Repulsion Energy =              0.0000000000000000
    One-Electron Energy =               -3593.6781735959211801
    Two-Electron Energy =                1021.1444942325216516
    Total Energy =                      -2572.5336793633996422
 Dipole X            :       -227.6591773          221.3349283           -6.3242489
 Dipole Y            :          0.0000595            0.0000000            0.0000595
 Dipole Z            :         -0.0000000            0.0000000           -0.0000000
 Magnitude           :                                                    6.3242489

    SAPT Results
  --------------------------------------------------------------------------------------------------------
    Electrostatics                -36.19471503 [mEh]     -22.71252658 [kcal/mol]     -95.02921122 [kJ/mol]
      Elst10,r                    -35.61838514 [mEh]     -22.35087411 [kcal/mol]     -93.51605729 [kJ/mol]
      Elst12,r                     -0.57632989 [mEh]      -0.36165247 [kcal/mol]      -1.51315393 [kJ/mol]

    Exchange                       15.85378799 [mEh]       9.94840216 [kcal/mol]      41.62411464 [kJ/mol]
      Exch10                       14.35539935 [mEh]       9.00814909 [kcal/mol]      37.69009579 [kJ/mol]
      Exch10(S^2)                  14.23477184 [mEh]       8.93245418 [kcal/mol]      37.37338831 [kJ/mol]
      Exch11(S^2)                   0.32154460 [mEh]       0.20177228 [kcal/mol]       0.84421522 [kJ/mol]
      Exch12(S^2)                   1.17684405 [mEh]       0.73848079 [kcal/mol]       3.08980363 [kJ/mol]

    Induction                     -10.52408441 [mEh]      -6.60396267 [kcal/mol]     -27.63097980 [kJ/mol]
      Ind20,r                     -42.39086167 [mEh]     -26.60066730 [kcal/mol]    -111.29719199 [kJ/mol]
      Ind22                        -5.06404490 [mEh]      -3.17773615 [kcal/mol]     -13.29564804 [kJ/mol]
      Exch-Ind20,r                 32.90101348 [mEh]      20.64569766 [kcal/mol]      86.38159899 [kJ/mol]
      Exch-Ind22                    3.93038034 [mEh]       2.46635090 [kcal/mol]      10.31921217 [kJ/mol]
      delta HF,r (2)                0.09942834 [mEh]       0.06239223 [kcal/mol]       0.26104908 [kJ/mol]

    Dispersion                     -4.53412367 [mEh]      -2.84520556 [kcal/mol]     -11.90434005 [kJ/mol]
      Disp20                       -5.98261355 [mEh]      -3.75414668 [kcal/mol]     -15.70734971 [kJ/mol]
      Disp21                        1.12178685 [mEh]       0.70393187 [kcal/mol]       2.94525096 [kJ/mol]
      Disp22 (SDQ)                 -0.10428213 [mEh]      -0.06543802 [kcal/mol]      -0.27379269 [kJ/mol]
      Disp22 (T)                   -0.81960655 [mEh]      -0.51431087 [kcal/mol]      -2.15187670 [kJ/mol]
      Est. Disp22 (T)              -0.91800014 [mEh]      -0.57605378 [kcal/mol]      -2.41020904 [kJ/mol]
      Exch-Disp20                   1.34898530 [mEh]       0.84650106 [kcal/mol]       3.54176043 [kJ/mol]

  Total HF                        -30.65340564 [mEh]     -19.23530244 [kcal/mol]     -80.48050543 [kJ/mol]
  Total SAPT0                     -35.28703389 [mEh]     -22.14294807 [kcal/mol]     -92.64609472 [kJ/mol]
  Total SAPT2                     -35.49863969 [mEh]     -22.27573271 [kcal/mol]     -93.20166567 [kJ/mol]
  Total SAPT2+                    -35.39913511 [mEh]     -22.21329265 [kcal/mol]     -92.94041643 [kJ/mol]

  Special recipe for scaled SAPT0 (see Manual):
    Electrostatics sSAPT0         -35.61838514 [mEh]     -22.35087411 [kcal/mol]     -93.51605729 [kJ/mol]
    Exchange sSAPT0                14.35539935 [mEh]       9.00814909 [kcal/mol]      37.69009579 [kJ/mol]
    Induction sSAPT0               -8.54688805 [mEh]      -5.36325323 [kcal/mol]     -22.43985149 [kJ/mol]
    Dispersion sSAPT0              -4.59904232 [mEh]      -2.88594263 [kcal/mol]     -12.07478395 [kJ/mol]
  Total sSAPT0                    -34.40891617 [mEh]     -21.59192088 [kcal/mol]     -90.34059695 [kJ/mol]
  --------------------------------------------------------------------------------------------------------

*** Psi4 exiting successfully. Buy a developer a beer!
