                               Psi4 1.9 release

  ==> Input File <==

--------------------------------------------------------------------------
MEMORY 60 GB

molecule dimer {
0 1
K      0.000000     0.000000     0.000000
Br     0.000000     2.788700     0.000000
--
-1 1
Br     3.625310     0.000000     0.000000

units ang
no_reorient
no_com
symmetry c1
}

set {
basis        aug-cc-pVTZ
scf_type     df
}

energy("sapt2+")
--------------------------------------------------------------------------

  //              Dimer HF             //
    Molecular point group: c1
  Charge       = -1
  Multiplicity = 1
  Basis Set: AUG-CC-PVTZ
    Blend: AUG-CC-PVTZ
  Basis Set: (AUG-CC-PVTZ AUX)
    Blend: AUG-CC-PVTZ-JKFIT + DEF2-UNIVERSAL-JKFIT
  @DF-RHF Final Energy: -5744.28134338687687
    Total Energy =                      -5744.2813433868777793
 Dipole X            :       -245.8664372          239.7795057           -6.0869315
 Dipole Y            :       -188.7593334          184.4457736           -4.3135598
 Dipole Z            :          0.0000000            0.0000000            0.0000000
 Magnitude           :                                                    7.4603977
  //            Monomer A HF           //
    Molecular point group: c1
  Multiplicity = 1
  Basis Set: AUG-CC-PVTZ
    Blend: AUG-CC-PVTZ
  Basis Set: (AUG-CC-PVTZ AUX)
    Blend: AUG-CC-PVTZ-JKFIT + DEF2-UNIVERSAL-JKFIT
  @DF-RHF Final Energy: -3171.72016855873926
    Total Energy =                      -3171.7201685587392603
  //            Monomer B HF           //
    Molecular point group: c1

    Geometry (in Angstrom), charge = -1, multiplicity = 1:

       Center              X                  Y                   Z               Mass
    ------------   -----------------  -----------------  -----------------  -----------------
      Gh(K)           0.000000000000     0.000000000000     0.000000000000    38.963706486400
      Gh(BR)          0.000000000000     2.788700000000     0.000000000000    78.918337600000
         BR           3.625310000000     0.000000000000     0.000000000000    78.918337600000

  Charge       = -1
  Multiplicity = 1
  Basis Set: AUG-CC-PVTZ
    Blend: AUG-CC-PVTZ
  Basis Set: (AUG-CC-PVTZ AUX)
    Blend: AUG-CC-PVTZ-JKFIT + DEF2-UNIVERSAL-JKFIT

    Orbital Energies [Eh]
    ---------------------

    Doubly Occupied:

       1A   -489.720677     2A    -64.860672     3A    -58.215155
       4A    -58.215154     5A    -58.215153     6A     -9.532921
       7A     -7.140266     8A     -7.140265     9A     -7.140257
      10A     -2.881938    11A     -2.881937    12A     -2.881937
      13A     -2.881936    14A     -2.881934    15A     -0.686001
      16A     -0.139342    17A     -0.139339    18A     -0.139339

  @DF-RHF Final Energy: -2572.53367758594868

   => Energetics <=

    Nuclear Repulsion Energy =              0.0000000000000000
    One-Electron Energy =               -3593.6789075364345081
    Two-Electron Energy =                1021.1452299504857137
    Total Energy =                      -2572.5336775859486806
 Dipole X            :       -246.6306851          239.7795057           -6.8511794
 Dipole Y            :          0.0000441            0.0000000            0.0000441
 Dipole Z            :          0.0000000            0.0000000            0.0000000
 Magnitude           :                                                    6.8511794

    SAPT Results
  --------------------------------------------------------------------------------------------------------
    Electrostatics                -27.48854089 [mEh]     -17.24931983 [kcal/mol]     -72.17115417 [kJ/mol]
      Elst10,r                    -27.26068613 [mEh]     -17.10633881 [kcal/mol]     -71.57292158 [kJ/mol]
      Elst12,r                     -0.22785476 [mEh]      -0.14298102 [kcal/mol]      -0.59823258 [kJ/mol]

    Exchange                        7.92805790 [mEh]       4.97493144 [kcal/mol]      20.81511314 [kJ/mol]
      Exch10                        7.01481468 [mEh]       4.40186267 [kcal/mol]      18.41739340 [kJ/mol]
      Exch10(S^2)                   6.98230689 [mEh]       4.38146372 [kcal/mol]      18.33204421 [kJ/mol]
      Exch11(S^2)                   0.21052251 [mEh]       0.13210487 [kcal/mol]       0.55272677 [kJ/mol]
      Exch12(S^2)                   0.70272071 [mEh]       0.44096390 [kcal/mol]       1.84499297 [kJ/mol]

    Induction                      -8.17515575 [mEh]      -5.12998769 [kcal/mol]     -21.46386847 [kJ/mol]
      Ind20,r                     -23.97886978 [mEh]     -15.04696796 [kcal/mol]     -62.95651395 [kJ/mol]
      Ind22                        -3.01836882 [mEh]      -1.89405503 [kcal/mol]      -7.92472624 [kJ/mol]
      Exch-Ind20,r                 16.64003149 [mEh]      10.44177741 [kcal/mol]      43.68839667 [kJ/mol]
      Exch-Ind22                    2.09458380 [mEh]       1.31437118 [kcal/mol]       5.49932901 [kJ/mol]
      delta HF,r (2)                0.08746756 [mEh]       0.05488672 [kcal/mol]       0.22964604 [kJ/mol]

    Dispersion                     -3.22653195 [mEh]      -2.02467937 [kcal/mol]      -8.47125847 [kJ/mol]
      Disp20                       -4.01515481 [mEh]      -2.51954768 [kcal/mol]     -10.54178751 [kJ/mol]
      Disp21                        0.74814233 [mEh]       0.46946640 [kcal/mol]       1.96424743 [kJ/mol]
      Disp22 (SDQ)                 -0.08308910 [mEh]      -0.05213920 [kcal/mol]      -0.21815040 [kJ/mol]
      Disp22 (T)                   -0.57693198 [mEh]      -0.36203029 [kcal/mol]      -1.51473472 [kJ/mol]
      Est. Disp22 (T)              -0.64687895 [mEh]      -0.40592267 [kcal/mol]      -1.69838045 [kJ/mol]
      Exch-Disp20                   0.77044858 [mEh]       0.48346378 [kcal/mol]       2.02281246 [kJ/mol]

  Total HF                        -27.49724219 [mEh]     -17.25477998 [kcal/mol]     -72.19399942 [kJ/mol]
  Total SAPT0                     -30.74194842 [mEh]     -19.29086388 [kcal/mol]     -80.71297447 [kJ/mol]
  Total SAPT2                     -30.98034498 [mEh]     -19.44045998 [kcal/mol]     -81.33888454 [kJ/mol]
  Total SAPT2+                    -30.96217070 [mEh]     -19.42905544 [kcal/mol]     -81.29116797 [kJ/mol]

  Special recipe for scaled SAPT0 (see Manual):
    Electrostatics sSAPT0         -27.26068613 [mEh]     -17.10633881 [kcal/mol]     -71.57292158 [kJ/mol]
    Exchange sSAPT0                 7.01481468 [mEh]       4.40186267 [kcal/mol]      18.41739340 [kJ/mol]
    Induction sSAPT0               -7.01787212 [mEh]      -4.40378124 [kcal/mol]     -18.42542070 [kJ/mol]
    Dispersion sSAPT0              -3.23389504 [mEh]      -2.02929977 [kcal/mol]      -8.49059025 [kJ/mol]
  Total sSAPT0                    -30.49763860 [mEh]     -19.13755715 [kcal/mol]     -80.07153913 [kJ/mol]
  --------------------------------------------------------------------------------------------------------

*** Psi4 exiting successfully. Buy a developer a beer!
