                               Psi4 1.9 release

  ==> Input File <==

--------------------------------------------------------------------------
MEMORY 60 GB

molecule dimer {
1 1
Li     0.000000     0.000000     0.000000
--
1 1
Li     1.824000     0.000000     0.000000

units ang
no_reorient
no_com
symmetry c1
}

set {
basis        aug-cc-pVTZ
scf_type     df
}

energy("sapt2+")
--------------------------------------------------------------------------

  //              Dimer HF             //
    Molecular point group: c1
  Charge       = 2
  Multiplicity = 1
  Basis Set: AUG-CC-PVTZ
    Blend: AUG-CC-PVTZ
  Basis Set: (AUG-CC-PVTZ AUX)
    Blend: DEF2-UNIVERSAL-JKFIT
  @DF-RHF Final Energy:   -14.18367814475381
    Total Energy =                        -14.1836781447538058
 Dipole X            :         -6.8937209           10.3405814            3.4468605
 Dipole Y            :          0.0000000            0.0000000            0.0000000
 Dipole Z            :          0.0000000            0.0000000            0.0000000
 Magnitude           :                                                    3.4468605
  //            Monomer A HF           //
    Molecular point group: c1
  Multiplicity = 1
  Basis Set: AUG-CC-PVTZ
    Blend: AUG-CC-PVTZ
  Basis Set: (AUG-CC-PVTZ AUX)
    Blend: DEF2-UNIVERSAL-JKFIT
  @DF-RHF Final Energy:    -7.23638339101172
    Total Energy =                         -7.2363833910117155
  //            Monomer B HF           //
    Molecular point group: c1

    Geometry (in Angstrom), charge = 1, multiplicity = 1:

       Center              X                  Y                   Z               Mass
    ------------   -----------------  -----------------  -----------------  -----------------
      Gh(LI)          0.000000000000     0.000000000000     0.000000000000     7.016003436600
         LI           1.824000000000     0.000000000000     0.000000000000     7.016003436600

  Charge       = 1
  Multiplicity = 1
  Basis Set: AUG-CC-PVTZ
    Blend: AUG-CC-PVTZ
  Basis Set: (AUG-CC-PVTZ AUX)
    Blend: DEF2-UNIVERSAL-JKFIT

    Orbital Energies [Eh]
    ---------------------

    Doubly Occupied:

       1A     -2.792369

  @DF-RHF Final Energy:    -7.23638339101164

   => Energetics <=

    Nuclear Repulsion Energy =              0.0000000000000000
    One-Electron Energy =                  -8.8880294456134923
    Two-Electron Energy =                   1.6516460546018494
    Total Energy =                         -7.2363833910116426
 Dipole X            :         -6.8937655           10.3405814            3.4468159
 Dipole Y            :          0.0000000            0.0000000            0.0000000
 Dipole Z            :          0.0000000            0.0000000            0.0000000
 Magnitude           :                                                    3.4468159

    SAPT Results
  --------------------------------------------------------------------------------------------------------
    Electrostatics                290.08135235 [mEh]     182.02879677 [kcal/mol]     761.60848567 [kJ/mol]
      Elst10,r                    290.12300449 [mEh]     182.05493388 [kcal/mol]     761.71784335 [kJ/mol]
      Elst12,r                     -0.04165214 [mEh]      -0.02613711 [kcal/mol]      -0.10935769 [kJ/mol]

    Exchange                        0.09877345 [mEh]       0.06198128 [kcal/mol]       0.25932966 [kJ/mol]
      Exch10                        0.09988566 [mEh]       0.06267920 [kcal/mol]       0.26224977 [kJ/mol]
      Exch10(S^2)                   0.09988271 [mEh]       0.06267734 [kcal/mol]       0.26224201 [kJ/mol]
      Exch11(S^2)                  -0.00065350 [mEh]      -0.00041008 [kcal/mol]      -0.00171575 [kJ/mol]
      Exch12(S^2)                  -0.00045872 [mEh]      -0.00028785 [kcal/mol]      -0.00120436 [kJ/mol]

    Induction                      -1.16474901 [mEh]      -0.73089104 [kcal/mol]      -3.05804811 [kJ/mol]
      Ind20,r                      -1.15108728 [mEh]      -0.72231817 [kcal/mol]      -3.02217923 [kJ/mol]
      Ind22                        -0.03102295 [mEh]      -0.01946720 [kcal/mol]      -0.08145076 [kJ/mol]
      Exch-Ind20,r                  0.01954761 [mEh]       0.01226631 [kcal/mol]       0.05132223 [kJ/mol]
      Exch-Ind22                    0.00052683 [mEh]       0.00033059 [kcal/mol]       0.00138319 [kJ/mol]
      delta HF,r (2)               -0.00271322 [mEh]      -0.00170257 [kcal/mol]      -0.00712355 [kJ/mol]

    Dispersion                     -0.03212573 [mEh]      -0.02015920 [kcal/mol]      -0.08434610 [kJ/mol]
      Disp20                       -0.02681868 [mEh]      -0.01682898 [kcal/mol]      -0.07041244 [kJ/mol]
      Disp21                       -0.00380247 [mEh]      -0.00238608 [kcal/mol]      -0.00998338 [kJ/mol]
      Disp22 (SDQ)                 -0.00105916 [mEh]      -0.00066463 [kcal/mol]      -0.00278081 [kJ/mol]
      Disp22 (T)                   -0.00046319 [mEh]      -0.00029066 [kcal/mol]      -0.00121610 [kJ/mol]
      Est. Disp22 (T)              -0.00063209 [mEh]      -0.00039664 [kcal/mol]      -0.00165954 [kJ/mol]
      Exch-Disp20                   0.00018666 [mEh]       0.00011713 [kcal/mol]       0.00049008 [kJ/mol]

  Total HF                        289.08863727 [mEh]     181.40585865 [kcal/mol]     759.00211258 [kJ/mol]
  Total SAPT0                     289.06200525 [mEh]     181.38914680 [kcal/mol]     758.93219022 [kJ/mol]
  Total SAPT2                     288.98874476 [mEh]     181.34317515 [kcal/mol]     758.73984484 [kJ/mol]
  Total SAPT2+                    288.98325105 [mEh]     181.33972780 [kcal/mol]     758.72542111 [kJ/mol]

  Special recipe for scaled SAPT0 (see Manual):
    Electrostatics sSAPT0         290.12300449 [mEh]     182.05493388 [kcal/mol]     761.71784335 [kJ/mol]
    Exchange sSAPT0                 0.09988566 [mEh]       0.06267920 [kcal/mol]       0.26224977 [kJ/mol]
    Induction sSAPT0               -1.13425115 [mEh]      -0.71175334 [kcal/mol]      -2.97797598 [kJ/mol]
    Dispersion sSAPT0              -0.02663201 [mEh]      -0.01671184 [kcal/mol]      -0.06992232 [kJ/mol]
  Total sSAPT0                    289.06200700 [mEh]     181.38914790 [kcal/mol]     758.93219482 [kJ/mol]
  --------------------------------------------------------------------------------------------------------

*** Psi4 exiting successfully. Buy a developer a beer!
