                               Psi4 1.9 release

  ==> Input File <==

--------------------------------------------------------------------------
MEMORY 60 GB

molecule dimer {
1 1
Li     0.000000     0.000000     0.000000
--
1 1
Li     1.672000     0.000000     0.000000

units ang
no_reorient
no_com
symmetry c1
}

set {
basis        aug-cc-pVTZ
scf_type     df
}

energy("sapt2+")
--------------------------------------------------------------------------

  //              Dimer HF             //
    Molecular point group: c1
  Charge       = 2
  Multiplicity = 1
  Basis Set: AUG-CC-PVTZ
    Blend: AUG-CC-PVTZ
  Basis Set: (AUG-CC-PVTZ AUX)
    Blend: DEF2-UNIVERSAL-JKFIT
  @DF-RHF Final Energy:   -14.15752031393946
    Total Energy =                        -14.1575203139394628
 Dipole X            :         -6.3192442            9.4788662            3.1596221
 Dipole Y            :         -0.0000000            0.0000000           -0.0000000
 Dipole Z            :         -0.0000000            0.0000000           -0.0000000
 Magnitude           :                                                    3.1596221
  //            Monomer A HF           //
    Molecular point group: c1
  Multiplicity = 1
  Basis Set: AUG-CC-PVTZ
    Blend: AUG-CC-PVTZ
  Basis Set: (AUG-CC-PVTZ AUX)
    Blend: DEF2-UNIVERSAL-JKFIT
  @DF-RHF Final Energy:    -7.23638363499314
    Total Energy =                         -7.2363836349931434
  //            Monomer B HF           //
    Molecular point group: c1

    Geometry (in Angstrom), charge = 1, multiplicity = 1:

       Center              X                  Y                   Z               Mass
    ------------   -----------------  -----------------  -----------------  -----------------
      Gh(LI)          0.000000000000     0.000000000000     0.000000000000     7.016003436600
         LI           1.672000000000     0.000000000000     0.000000000000     7.016003436600

  Charge       = 1
  Multiplicity = 1
  Basis Set: AUG-CC-PVTZ
    Blend: AUG-CC-PVTZ
  Basis Set: (AUG-CC-PVTZ AUX)
    Blend: DEF2-UNIVERSAL-JKFIT

    Orbital Energies [Eh]
    ---------------------

    Doubly Occupied:

       1A     -2.792365

  @DF-RHF Final Energy:    -7.23638363499340

   => Energetics <=

    Nuclear Repulsion Energy =              0.0000000000000000
    One-Electron Energy =                  -8.8880373905842021
    Two-Electron Energy =                   1.6516537555907995
    Total Energy =                         -7.2363836349934028
 Dipole X            :         -6.3192699            9.4788662            3.1595963
 Dipole Y            :          0.0000000            0.0000000            0.0000000
 Dipole Z            :         -0.0000000            0.0000000           -0.0000000
 Magnitude           :                                                    3.1595963

    SAPT Results
  --------------------------------------------------------------------------------------------------------
    Electrostatics                316.43335926 [mEh]     198.56493075 [kcal/mol]     830.79567028 [kJ/mol]
      Elst10,r                    316.48370864 [mEh]     198.59652546 [kcal/mol]     830.92786254 [kJ/mol]
      Elst12,r                     -0.05034938 [mEh]      -0.03159471 [kcal/mol]      -0.13219227 [kJ/mol]

    Exchange                        0.33373348 [mEh]       0.20942092 [kcal/mol]       0.87621713 [kJ/mol]
      Exch10                        0.32722270 [mEh]       0.20533535 [kcal/mol]       0.85912309 [kJ/mol]
      Exch10(S^2)                   0.32719309 [mEh]       0.20531676 [kcal/mol]       0.85904534 [kJ/mol]
      Exch11(S^2)                  -0.00170400 [mEh]      -0.00106927 [kcal/mol]      -0.00447384 [kJ/mol]
      Exch12(S^2)                   0.00821477 [mEh]       0.00515485 [kcal/mol]       0.02156787 [kJ/mol]

    Induction                      -1.60557079 [mEh]      -1.00751088 [kcal/mol]      -4.21542553 [kJ/mol]
      Ind20,r                      -1.63528279 [mEh]      -1.02615544 [kcal/mol]      -4.29343436 [kJ/mol]
      Ind22                        -0.04329115 [mEh]      -0.02716560 [kcal/mol]      -0.11366089 [kJ/mol]
      Exch-Ind20,r                  0.06405152 [mEh]       0.04019293 [kcal/mol]       0.16816724 [kJ/mol]
      Exch-Ind22                    0.00169565 [mEh]       0.00106404 [kcal/mol]       0.00445192 [kJ/mol]
      delta HF,r (2)                0.00725598 [mEh]       0.00455319 [kcal/mol]       0.01905056 [kJ/mol]

    Dispersion                     -0.05334355 [mEh]      -0.03347359 [kcal/mol]      -0.14005348 [kJ/mol]
      Disp20                       -0.04481444 [mEh]      -0.02812148 [kcal/mol]      -0.11766029 [kJ/mol]
      Disp21                       -0.00627918 [mEh]      -0.00394024 [kcal/mol]      -0.01648598 [kJ/mol]
      Disp22 (SDQ)                 -0.00170120 [mEh]      -0.00106752 [kcal/mol]      -0.00446649 [kJ/mol]
      Disp22 (T)                   -0.00071193 [mEh]      -0.00044674 [kcal/mol]      -0.00186916 [kJ/mol]
      Est. Disp22 (T)              -0.00101848 [mEh]      -0.00063911 [kcal/mol]      -0.00267402 [kJ/mol]
      Exch-Disp20                   0.00046974 [mEh]       0.00029477 [kcal/mol]       0.00123330 [kJ/mol]

  Total HF                        315.24695605 [mEh]     197.82045150 [kcal/mol]     827.68076907 [kJ/mol]
  Total SAPT0                     315.20261135 [mEh]     197.79262478 [kcal/mol]     827.56434208 [kJ/mol]
  Total SAPT2                     315.11717725 [mEh]     197.73901407 [kcal/mol]     827.34003488 [kJ/mol]
  Total SAPT2+                    315.10817839 [mEh]     197.73336721 [kcal/mol]     827.31640839 [kJ/mol]

  Special recipe for scaled SAPT0 (see Manual):
    Electrostatics sSAPT0         316.48370864 [mEh]     198.59652546 [kcal/mol]     830.92786254 [kJ/mol]
    Exchange sSAPT0                 0.32722270 [mEh]       0.20533535 [kcal/mol]       0.85912309 [kJ/mol]
    Induction sSAPT0               -1.56395790 [mEh]      -0.98139840 [kcal/mol]      -4.10617090 [kJ/mol]
    Dispersion sSAPT0              -0.04434457 [mEh]      -0.02782664 [kcal/mol]      -0.11642665 [kJ/mol]
  Total sSAPT0                    315.20262887 [mEh]     197.79263578 [kcal/mol]     827.56438808 [kJ/mol]
  --------------------------------------------------------------------------------------------------------

*** Psi4 exiting successfully. Buy a developer a beer!
