                               Psi4 1.9 release

  ==> Input File <==

--------------------------------------------------------------------------
MEMORY 60 GB

molecule dimer {
1 1
Li     0.000000     0.000000     0.000000
--
1 1
Li     3.040000     0.000000     0.000000

units ang
no_reorient
no_com
symmetry c1
}

set {
basis        aug-cc-pVTZ
scf_type     df
}

energy("sapt2+")
--------------------------------------------------------------------------

  //              Dimer HF             //
    Molecular point group: c1
  Charge       = 2
  Multiplicity = 1
  Basis Set: AUG-CC-PVTZ
    Blend: AUG-CC-PVTZ
  Basis Set: (AUG-CC-PVTZ AUX)
    Blend: DEF2-UNIVERSAL-JKFIT
  @DF-RHF Final Energy:   -14.29882459348550
    Total Energy =                        -14.2988245934855023
 Dipole X            :        -11.4895348           17.2343023            5.7447674
 Dipole Y            :          0.0000000            0.0000000            0.0000000
 Dipole Z            :         -0.0000000            0.0000000           -0.0000000
 Magnitude           :                                                    5.7447674
  //            Monomer A HF           //
    Molecular point group: c1
  Multiplicity = 1
  Basis Set: AUG-CC-PVTZ
    Blend: AUG-CC-PVTZ
  Basis Set: (AUG-CC-PVTZ AUX)
    Blend: DEF2-UNIVERSAL-JKFIT
  @DF-RHF Final Energy:    -7.23638301563587
    Total Energy =                         -7.2363830156358731
  //            Monomer B HF           //
    Molecular point group: c1

    Geometry (in Angstrom), charge = 1, multiplicity = 1:

       Center              X                  Y                   Z               Mass
    ------------   -----------------  -----------------  -----------------  -----------------
      Gh(LI)          0.000000000000     0.000000000000     0.000000000000     7.016003436600
         LI           3.040000000000     0.000000000000     0.000000000000     7.016003436600

  Charge       = 1
  Multiplicity = 1
  Basis Set: AUG-CC-PVTZ
    Blend: AUG-CC-PVTZ
  Basis Set: (AUG-CC-PVTZ AUX)
    Blend: DEF2-UNIVERSAL-JKFIT

    Orbital Energies [Eh]
    ---------------------

    Doubly Occupied:

       1A     -2.792370

  @DF-RHF Final Energy:    -7.23638301563583

   => Energetics <=

    Nuclear Repulsion Energy =              0.0000000000000000
    One-Electron Energy =                  -8.8880256841939644
    Two-Electron Energy =                   1.6516426685581371
    Total Energy =                         -7.2363830156358269
 Dipole X            :        -11.4895961           17.2343023            5.7447062
 Dipole Y            :          0.0000000            0.0000000            0.0000000
 Dipole Z            :         -0.0000000            0.0000000           -0.0000000
 Magnitude           :                                                    5.7447062

    SAPT Results
  --------------------------------------------------------------------------------------------------------
    Electrostatics                174.07195241 [mEh]     109.23179926 [kcal/mol]     457.02584808 [kJ/mol]
      Elst10,r                    174.07538235 [mEh]     109.23395158 [kcal/mol]     457.03485340 [kJ/mol]
      Elst12,r                     -0.00342994 [mEh]      -0.00215232 [kcal/mol]      -0.00900532 [kJ/mol]

    Exchange                       -0.00040460 [mEh]      -0.00025389 [kcal/mol]      -0.00106228 [kJ/mol]
      Exch10                        0.00000518 [mEh]       0.00000325 [kcal/mol]       0.00001360 [kJ/mol]
      Exch10(S^2)                   0.00000518 [mEh]       0.00000325 [kcal/mol]       0.00001360 [kJ/mol]
      Exch11(S^2)                   0.00000048 [mEh]       0.00000030 [kcal/mol]       0.00000126 [kJ/mol]
      Exch12(S^2)                  -0.00041026 [mEh]      -0.00025744 [kcal/mol]      -0.00107713 [kJ/mol]

    Induction                      -0.13799996 [mEh]      -0.08659628 [kcal/mol]      -0.36231885 [kJ/mol]
      Ind20,r                      -0.13344920 [mEh]      -0.08374064 [kcal/mol]      -0.35037083 [kJ/mol]
      Ind22                        -0.00405025 [mEh]      -0.00254157 [kcal/mol]      -0.01063392 [kJ/mol]
      Exch-Ind20,r                  0.00000109 [mEh]       0.00000069 [kcal/mol]       0.00000287 [kJ/mol]
      Exch-Ind22                    0.00000003 [mEh]       0.00000002 [kcal/mol]       0.00000009 [kJ/mol]
      delta HF,r (2)               -0.00050164 [mEh]      -0.00031478 [kcal/mol]      -0.00131705 [kJ/mol]

    Dispersion                     -0.00110674 [mEh]      -0.00069449 [kcal/mol]      -0.00290574 [kJ/mol]
      Disp20                       -0.00090793 [mEh]      -0.00056973 [kcal/mol]      -0.00238376 [kJ/mol]
      Disp21                       -0.00013403 [mEh]      -0.00008411 [kcal/mol]      -0.00035190 [kJ/mol]
      Disp22 (SDQ)                 -0.00004034 [mEh]      -0.00002531 [kcal/mol]      -0.00010590 [kJ/mol]
      Disp22 (T)                   -0.00002120 [mEh]      -0.00001331 [kcal/mol]      -0.00005567 [kJ/mol]
      Est. Disp22 (T)              -0.00002409 [mEh]      -0.00001512 [kcal/mol]      -0.00006326 [kJ/mol]
      Exch-Disp20                  -0.00000035 [mEh]      -0.00000022 [kcal/mol]      -0.00000092 [kJ/mol]

  Total HF                        173.94143779 [mEh]     109.14990009 [kcal/mol]     456.68318199 [kJ/mol]
  Total SAPT0                     173.94052951 [mEh]     109.14933014 [kcal/mol]     456.68079731 [kJ/mol]
  Total SAPT2                     173.93263957 [mEh]     109.14437913 [kcal/mol]     456.66008228 [kJ/mol]
  Total SAPT2+                    173.93244111 [mEh]     109.14425459 [kcal/mol]     456.65956122 [kJ/mol]

  Special recipe for scaled SAPT0 (see Manual):
    Electrostatics sSAPT0         174.07538235 [mEh]     109.23395158 [kcal/mol]     457.03485340 [kJ/mol]
    Exchange sSAPT0                 0.00000518 [mEh]       0.00000325 [kcal/mol]       0.00001360 [kJ/mol]
    Induction sSAPT0               -0.13394975 [mEh]      -0.08405473 [kcal/mol]      -0.35168501 [kJ/mol]
    Dispersion sSAPT0              -0.00090828 [mEh]      -0.00056995 [kcal/mol]      -0.00238468 [kJ/mol]
  Total sSAPT0                    173.94052951 [mEh]     109.14933014 [kcal/mol]     456.68079731 [kJ/mol]
  --------------------------------------------------------------------------------------------------------

*** Psi4 exiting successfully. Buy a developer a beer!
