                               Psi4 1.9 release

  ==> Input File <==

--------------------------------------------------------------------------
MEMORY 60 GB

molecule dimer {
1 1
Li     0.000000     0.000000     0.000000
--
1 1
Li     1.976000     0.000000     0.000000

units ang
no_reorient
no_com
symmetry c1
}

set {
basis        aug-cc-pVTZ
scf_type     df
}

energy("sapt2+")
--------------------------------------------------------------------------

  //              Dimer HF             //
    Molecular point group: c1
  Charge       = 2
  Multiplicity = 1
  Basis Set: AUG-CC-PVTZ
    Blend: AUG-CC-PVTZ
  Basis Set: (AUG-CC-PVTZ AUX)
    Blend: DEF2-UNIVERSAL-JKFIT
  @DF-RHF Final Energy:   -14.20575736426149
    Total Energy =                        -14.2057573642614852
 Dipole X            :         -7.4681976           11.2022965            3.7340988
 Dipole Y            :          0.0000000            0.0000000            0.0000000
 Dipole Z            :         -0.0000000            0.0000000           -0.0000000
 Magnitude           :                                                    3.7340988
  //            Monomer A HF           //
    Molecular point group: c1
  Multiplicity = 1
  Basis Set: AUG-CC-PVTZ
    Blend: AUG-CC-PVTZ
  Basis Set: (AUG-CC-PVTZ AUX)
    Blend: DEF2-UNIVERSAL-JKFIT
  @DF-RHF Final Energy:    -7.23638323269978
    Total Energy =                         -7.2363832326997830
  //            Monomer B HF           //
    Molecular point group: c1

    Geometry (in Angstrom), charge = 1, multiplicity = 1:

       Center              X                  Y                   Z               Mass
    ------------   -----------------  -----------------  -----------------  -----------------
      Gh(LI)          0.000000000000     0.000000000000     0.000000000000     7.016003436600
         LI           1.976000000000     0.000000000000     0.000000000000     7.016003436600

  Charge       = 1
  Multiplicity = 1
  Basis Set: AUG-CC-PVTZ
    Blend: AUG-CC-PVTZ
  Basis Set: (AUG-CC-PVTZ AUX)
    Blend: DEF2-UNIVERSAL-JKFIT

    Orbital Energies [Eh]
    ---------------------

    Doubly Occupied:

       1A     -2.792371

  @DF-RHF Final Energy:    -7.23638323269971

   => Energetics <=

    Nuclear Repulsion Energy =              0.0000000000000000
    One-Electron Energy =                  -8.8880240196625913
    Two-Electron Energy =                   1.6516407869628793
    Total Energy =                         -7.2363832326997120
 Dipole X            :         -7.4682600           11.2022965            3.7340365
 Dipole Y            :          0.0000000            0.0000000            0.0000000
 Dipole Z            :         -0.0000000            0.0000000           -0.0000000
 Magnitude           :                                                    3.7340365

    SAPT Results
  --------------------------------------------------------------------------------------------------------
    Electrostatics                267.77897615 [mEh]     168.03384441 [kcal/mol]     703.05360501 [kJ/mol]
      Elst10,r                    267.81067522 [mEh]     168.05373588 [kcal/mol]     703.13683092 [kJ/mol]
      Elst12,r                     -0.03169907 [mEh]      -0.01989147 [kcal/mol]      -0.08322591 [kJ/mol]

    Exchange                        0.02731704 [mEh]       0.01714170 [kcal/mol]       0.07172087 [kJ/mol]
      Exch10                        0.03012102 [mEh]       0.01890123 [kcal/mol]       0.07908273 [kJ/mol]
      Exch10(S^2)                   0.03012073 [mEh]       0.01890105 [kcal/mol]       0.07908197 [kJ/mol]
      Exch11(S^2)                  -0.00025072 [mEh]      -0.00015733 [kcal/mol]      -0.00065828 [kJ/mol]
      Exch12(S^2)                  -0.00255326 [mEh]      -0.00160220 [kcal/mol]      -0.00670359 [kJ/mol]

    Induction                      -0.85442845 [mEh]      -0.53616195 [kcal/mol]      -2.24330159 [kJ/mol]
      Ind20,r                      -0.83272919 [mEh]      -0.52254546 [kcal/mol]      -2.18633019 [kJ/mol]
      Ind22                        -0.02289735 [mEh]      -0.01436830 [kcal/mol]      -0.06011698 [kJ/mol]
      Exch-Ind20,r                  0.00596424 [mEh]       0.00374262 [kcal/mol]       0.01565910 [kJ/mol]
      Exch-Ind22                    0.00016400 [mEh]       0.00010291 [kcal/mol]       0.00043057 [kJ/mol]
      delta HF,r (2)               -0.00493015 [mEh]      -0.00309371 [kcal/mol]      -0.01294410 [kJ/mol]

    Dispersion                     -0.01966358 [mEh]      -0.01233909 [kcal/mol]      -0.05162673 [kJ/mol]
      Disp20                       -0.01634106 [mEh]      -0.01025417 [kcal/mol]      -0.04290345 [kJ/mol]
      Disp21                       -0.00233625 [mEh]      -0.00146602 [kcal/mol]      -0.00613382 [kJ/mol]
      Disp22 (SDQ)                 -0.00066272 [mEh]      -0.00041586 [kcal/mol]      -0.00173996 [kJ/mol]
      Disp22 (T)                   -0.00030175 [mEh]      -0.00018935 [kcal/mol]      -0.00079225 [kJ/mol]
      Est. Disp22 (T)              -0.00039657 [mEh]      -0.00024885 [kcal/mol]      -0.00104121 [kJ/mol]
      Exch-Disp20                   0.00007301 [mEh]       0.00004582 [kcal/mol]       0.00019170 [kJ/mol]

  Total HF                        267.00910114 [mEh]     167.55074055 [kcal/mol]     701.03229846 [kJ/mol]
  Total SAPT0                     266.99283309 [mEh]     167.54053220 [kcal/mol]     700.98958671 [kJ/mol]
  Total SAPT2                     266.93559668 [mEh]     167.50461581 [kcal/mol]     700.83931253 [kJ/mol]
  Total SAPT2+                    266.93220114 [mEh]     167.50248507 [kcal/mol]     700.83039755 [kJ/mol]

  Special recipe for scaled SAPT0 (see Manual):
    Electrostatics sSAPT0         267.81067522 [mEh]     168.05373588 [kcal/mol]     703.13683092 [kJ/mol]
    Exchange sSAPT0                 0.03012102 [mEh]       0.01890123 [kcal/mol]       0.07908273 [kJ/mol]
    Induction sSAPT0               -0.83169493 [mEh]      -0.52189645 [kcal/mol]      -2.18361474 [kJ/mol]
    Dispersion sSAPT0              -0.01626804 [mEh]      -0.01020835 [kcal/mol]      -0.04271175 [kJ/mol]
  Total sSAPT0                    266.99283326 [mEh]     167.54053230 [kcal/mol]     700.98958716 [kJ/mol]
  --------------------------------------------------------------------------------------------------------

*** Psi4 exiting successfully. Buy a developer a beer!
