                               Psi4 1.9 release

  ==> Input File <==

--------------------------------------------------------------------------
MEMORY 60 GB

molecule dimer {
1 1
Li     0.000000     0.000000     0.000000
--
1 1
Li     1.520000     0.000000     0.000000

units ang
no_reorient
no_com
symmetry c1
}

set {
basis        aug-cc-pVTZ
scf_type     df
}

energy("sapt2+")
--------------------------------------------------------------------------

  //              Dimer HF             //
    Molecular point group: c1
  Charge       = 2
  Multiplicity = 1
  Basis Set: AUG-CC-PVTZ
    Blend: AUG-CC-PVTZ
  Basis Set: (AUG-CC-PVTZ AUX)
    Blend: DEF2-UNIVERSAL-JKFIT
  @DF-RHF Final Energy:   -14.12578828619132
    Total Energy =                        -14.1257882861913231
 Dipole X            :         -5.7447674            8.6171511            2.8723837
 Dipole Y            :          0.0000000            0.0000000            0.0000000
 Dipole Z            :         -0.0000000            0.0000000           -0.0000000
 Magnitude           :                                                    2.8723837
  //            Monomer A HF           //
    Molecular point group: c1
  Multiplicity = 1
  Basis Set: AUG-CC-PVTZ
    Blend: AUG-CC-PVTZ
  Basis Set: (AUG-CC-PVTZ AUX)
    Blend: DEF2-UNIVERSAL-JKFIT
  @DF-RHF Final Energy:    -7.23638392555617
    Total Energy =                         -7.2363839255561730
  //            Monomer B HF           //
    Molecular point group: c1

    Geometry (in Angstrom), charge = 1, multiplicity = 1:

       Center              X                  Y                   Z               Mass
    ------------   -----------------  -----------------  -----------------  -----------------
      Gh(LI)          0.000000000000     0.000000000000     0.000000000000     7.016003436600
         LI           1.520000000000     0.000000000000     0.000000000000     7.016003436600

  Charge       = 1
  Multiplicity = 1
  Basis Set: AUG-CC-PVTZ
    Blend: AUG-CC-PVTZ
  Basis Set: (AUG-CC-PVTZ AUX)
    Blend: DEF2-UNIVERSAL-JKFIT

    Orbital Energies [Eh]
    ---------------------

    Doubly Occupied:

       1A     -2.792360

  @DF-RHF Final Energy:    -7.23638392555579

   => Energetics <=

    Nuclear Repulsion Energy =              0.0000000000000000
    One-Electron Energy =                  -8.8880473471142878
    Two-Electron Energy =                   1.6516634215584964
    Total Energy =                         -7.2363839255557911
 Dipole X            :         -5.7447819            8.6171511            2.8723692
 Dipole Y            :         -0.0000000            0.0000000           -0.0000000
 Dipole Z            :         -0.0000000            0.0000000           -0.0000000
 Magnitude           :                                                    2.8723692

    SAPT Results
  --------------------------------------------------------------------------------------------------------
    Electrostatics                348.03880230 [mEh]     218.39764569 [kcal/mol]     913.77574955 [kJ/mol]
      Elst10,r                    348.09147165 [mEh]     218.43069620 [kcal/mol]     913.91403290 [kJ/mol]
      Elst12,r                     -0.05266935 [mEh]      -0.03305051 [kcal/mol]      -0.13828335 [kJ/mol]

    Exchange                        1.08684237 [mEh]       0.68200388 [kcal/mol]       2.85350424 [kJ/mol]
      Exch10                        1.05663222 [mEh]       0.66304673 [kcal/mol]       2.77418752 [kJ/mol]
      Exch10(S^2)                   1.05634521 [mEh]       0.66286663 [kcal/mol]       2.77343397 [kJ/mol]
      Exch11(S^2)                  -0.00466360 [mEh]      -0.00292646 [kcal/mol]      -0.01224429 [kJ/mol]
      Exch12(S^2)                   0.03487375 [mEh]       0.02188361 [kcal/mol]       0.09156102 [kJ/mol]

    Induction                      -2.22613697 [mEh]      -1.39692204 [kcal/mol]      -5.84472181 [kJ/mol]
      Ind20,r                      -2.41158685 [mEh]      -1.51329359 [kcal/mol]      -6.33162039 [kJ/mol]
      Ind22                        -0.06305068 [mEh]      -0.03956490 [kcal/mol]      -0.16553953 [kJ/mol]
      Exch-Ind20,r                  0.20855524 [mEh]       0.13087039 [kcal/mol]       0.54756172 [kJ/mol]
      Exch-Ind22                    0.00545265 [mEh]       0.00342159 [kcal/mol]       0.01431594 [kJ/mol]
      delta HF,r (2)                0.03449266 [mEh]       0.02164447 [kcal/mol]       0.09056045 [kJ/mol]

    Dispersion                     -0.08983826 [mEh]      -0.05637436 [kcal/mol]      -0.23587033 [kJ/mol]
      Disp20                       -0.07610068 [mEh]      -0.04775390 [kcal/mol]      -0.19980230 [kJ/mol]
      Disp21                       -0.01046666 [mEh]      -0.00656793 [kcal/mol]      -0.02748021 [kJ/mol]
      Disp22 (SDQ)                 -0.00273524 [mEh]      -0.00171639 [kcal/mol]      -0.00718138 [kJ/mol]
      Disp22 (T)                   -0.00108207 [mEh]      -0.00067901 [kcal/mol]      -0.00284097 [kJ/mol]
      Est. Disp22 (T)              -0.00164763 [mEh]      -0.00103390 [kcal/mol]      -0.00432585 [kJ/mol]
      Exch-Disp20                   0.00111194 [mEh]       0.00069776 [kcal/mol]       0.00291941 [kJ/mol]

  Total HF                        346.97956492 [mEh]     217.73296419 [kcal/mol]     910.99472219 [kJ/mol]
  Total SAPT0                     346.90457619 [mEh]     217.68590805 [kcal/mol]     910.79783930 [kJ/mol]
  Total SAPT2                     346.82451896 [mEh]     217.63567139 [kcal/mol]     910.58764909 [kJ/mol]
  Total SAPT2+                    346.80966943 [mEh]     217.62635317 [kcal/mol]     910.54866165 [kJ/mol]

  Special recipe for scaled SAPT0 (see Manual):
    Electrostatics sSAPT0         348.09147165 [mEh]     218.43069620 [kcal/mol]     913.91403290 [kJ/mol]
    Exchange sSAPT0                 1.05663222 [mEh]       0.66304673 [kcal/mol]       2.77418752 [kJ/mol]
    Induction sSAPT0               -2.16836891 [mEh]      -1.36067203 [kcal/mol]      -5.69305178 [kJ/mol]
    Dispersion sSAPT0              -0.07498783 [mEh]      -0.04705557 [kcal/mol]      -0.19688051 [kJ/mol]
  Total sSAPT0                    346.90474714 [mEh]     217.68601533 [kcal/mol]     910.79828813 [kJ/mol]
  --------------------------------------------------------------------------------------------------------

*** Psi4 exiting successfully. Buy a developer a beer!
