                               Psi4 1.9 release

  ==> Input File <==

--------------------------------------------------------------------------
MEMORY 60 GB

molecule dimer {
1 1
Li     0.000000     0.000000     0.000000
--
1 1
Li     2.128000     0.000000     0.000000

units ang
no_reorient
no_com
symmetry c1
}

set {
basis        aug-cc-pVTZ
scf_type     df
}

energy("sapt2+")
--------------------------------------------------------------------------

  //              Dimer HF             //
    Molecular point group: c1
  Charge       = 2
  Multiplicity = 1
  Basis Set: AUG-CC-PVTZ
    Blend: AUG-CC-PVTZ
  Basis Set: (AUG-CC-PVTZ AUX)
    Blend: DEF2-UNIVERSAL-JKFIT
  @DF-RHF Final Energy:   -14.22469190242795
    Total Energy =                        -14.2246919024279457
 Dipole X            :         -8.0426744           12.0640116            4.0213372
 Dipole Y            :         -0.0000000            0.0000000           -0.0000000
 Dipole Z            :         -0.0000000            0.0000000           -0.0000000
 Magnitude           :                                                    4.0213372
  //            Monomer A HF           //
    Molecular point group: c1
  Multiplicity = 1
  Basis Set: AUG-CC-PVTZ
    Blend: AUG-CC-PVTZ
  Basis Set: (AUG-CC-PVTZ AUX)
    Blend: DEF2-UNIVERSAL-JKFIT
  @DF-RHF Final Energy:    -7.23638314850140
    Total Energy =                         -7.2363831485014014
  //            Monomer B HF           //
    Molecular point group: c1

    Geometry (in Angstrom), charge = 1, multiplicity = 1:

       Center              X                  Y                   Z               Mass
    ------------   -----------------  -----------------  -----------------  -----------------
      Gh(LI)          0.000000000000     0.000000000000     0.000000000000     7.016003436600
         LI           2.128000000000     0.000000000000     0.000000000000     7.016003436600

  Charge       = 1
  Multiplicity = 1
  Basis Set: AUG-CC-PVTZ
    Blend: AUG-CC-PVTZ
  Basis Set: (AUG-CC-PVTZ AUX)
    Blend: DEF2-UNIVERSAL-JKFIT

    Orbital Energies [Eh]
    ---------------------

    Doubly Occupied:

       1A     -2.792373

  @DF-RHF Final Energy:    -7.23638314850124

   => Energetics <=

    Nuclear Repulsion Energy =              0.0000000000000000
    One-Electron Energy =                  -8.8880208299146943
    Two-Electron Energy =                   1.6516376814134583
    Total Energy =                         -7.2363831485012362
 Dipole X            :         -8.0427512           12.0640116            4.0212604
 Dipole Y            :         -0.0000000            0.0000000           -0.0000000
 Dipole Z            :         -0.0000000            0.0000000           -0.0000000
 Magnitude           :                                                    4.0212604

    SAPT Results
  --------------------------------------------------------------------------------------------------------
    Electrostatics                248.66044430 [mEh]     156.03678455 [kcal/mol]     652.85790656 [kJ/mol]
      Elst10,r                    248.68320956 [mEh]     156.05106997 [kcal/mol]     652.91767676 [kJ/mol]
      Elst12,r                     -0.02276526 [mEh]      -0.01428542 [kcal/mol]      -0.05977019 [kJ/mol]

    Exchange                        0.00644045 [mEh]       0.00404144 [kcal/mol]       0.01690939 [kJ/mol]
      Exch10                        0.00898544 [mEh]       0.00563845 [kcal/mol]       0.02359126 [kJ/mol]
      Exch10(S^2)                   0.00898541 [mEh]       0.00563843 [kcal/mol]       0.02359119 [kJ/mol]
      Exch11(S^2)                  -0.00009039 [mEh]      -0.00005672 [kcal/mol]      -0.00023733 [kJ/mol]
      Exch12(S^2)                  -0.00245460 [mEh]      -0.00154028 [kcal/mol]      -0.00644454 [kJ/mol]

    Induction                      -0.63497995 [mEh]      -0.39845593 [kcal/mol]      -1.66713962 [kJ/mol]
      Ind20,r                      -0.61528597 [mEh]      -0.38609778 [kcal/mol]      -1.61543310 [kJ/mol]
      Ind22                        -0.01723078 [mEh]      -0.01081248 [kcal/mol]      -0.04523940 [kJ/mol]
      Exch-Ind20,r                  0.00183028 [mEh]       0.00114852 [kcal/mol]       0.00480540 [kJ/mol]
      Exch-Ind22                    0.00005126 [mEh]       0.00003216 [kcal/mol]       0.00013457 [kJ/mol]
      delta HF,r (2)               -0.00434473 [mEh]      -0.00272636 [kcal/mol]      -0.01140709 [kJ/mol]

    Dispersion                     -0.01226254 [mEh]      -0.00769486 [kcal/mol]      -0.03219529 [kJ/mol]
      Disp20                       -0.01015992 [mEh]      -0.00637545 [kcal/mol]      -0.02667488 [kJ/mol]
      Disp21                       -0.00146249 [mEh]      -0.00091773 [kcal/mol]      -0.00383977 [kJ/mol]
      Disp22 (SDQ)                 -0.00041898 [mEh]      -0.00026291 [kcal/mol]      -0.00110003 [kJ/mol]
      Disp22 (T)                   -0.00019883 [mEh]      -0.00012477 [kcal/mol]      -0.00052203 [kJ/mol]
      Est. Disp22 (T)              -0.00025297 [mEh]      -0.00015874 [kcal/mol]      -0.00066416 [kJ/mol]
      Exch-Disp20                   0.00003182 [mEh]       0.00001997 [kcal/mol]       0.00008355 [kJ/mol]

  Total HF                        248.07439457 [mEh]     155.66903280 [kcal/mol]     651.31923322 [kJ/mol]
  Total SAPT0                     248.06426647 [mEh]     155.66267732 [kcal/mol]     651.29264189 [kJ/mol]
  Total SAPT2                     248.02177670 [mEh]     155.63601458 [kcal/mol]     651.18108501 [kJ/mol]
  Total SAPT2+                    248.01964226 [mEh]     155.63467520 [kcal/mol]     651.17548105 [kJ/mol]

  Special recipe for scaled SAPT0 (see Manual):
    Electrostatics sSAPT0         248.68320956 [mEh]     156.05106997 [kcal/mol]     652.91767676 [kJ/mol]
    Exchange sSAPT0                 0.00898544 [mEh]       0.00563845 [kcal/mol]       0.02359126 [kJ/mol]
    Induction sSAPT0               -0.61780043 [mEh]      -0.38767562 [kcal/mol]      -1.62203479 [kJ/mol]
    Dispersion sSAPT0              -0.01012810 [mEh]      -0.00635548 [kcal/mol]      -0.02659133 [kJ/mol]
  Total sSAPT0                    248.06426647 [mEh]     155.66267732 [kcal/mol]     651.29264189 [kJ/mol]
  --------------------------------------------------------------------------------------------------------

*** Psi4 exiting successfully. Buy a developer a beer!
