                               Psi4 1.9 release

  ==> Input File <==

--------------------------------------------------------------------------
MEMORY 60 GB

molecule dimer {
1 1
Li     0.000000     0.000000     0.000000
--
1 1
Li     2.280000     0.000000     0.000000

units ang
no_reorient
no_com
symmetry c1
}

set {
basis        aug-cc-pVTZ
scf_type     df
}

energy("sapt2+")
--------------------------------------------------------------------------

  //              Dimer HF             //
    Molecular point group: c1
  Charge       = 2
  Multiplicity = 1
  Basis Set: AUG-CC-PVTZ
    Blend: AUG-CC-PVTZ
  Basis Set: (AUG-CC-PVTZ AUX)
    Blend: DEF2-UNIVERSAL-JKFIT
  @DF-RHF Final Energy:   -14.24112345794173
    Total Energy =                        -14.2411234579417343
 Dipole X            :         -8.6171511           12.9257267            4.3085756
 Dipole Y            :         -0.0000000            0.0000000           -0.0000000
 Dipole Z            :         -0.0000000            0.0000000           -0.0000000
 Magnitude           :                                                    4.3085756
  //            Monomer A HF           //
    Molecular point group: c1
  Multiplicity = 1
  Basis Set: AUG-CC-PVTZ
    Blend: AUG-CC-PVTZ
  Basis Set: (AUG-CC-PVTZ AUX)
    Blend: DEF2-UNIVERSAL-JKFIT
  @DF-RHF Final Energy:    -7.23638311734561
    Total Energy =                         -7.2363831173456070
  //            Monomer B HF           //
    Molecular point group: c1

    Geometry (in Angstrom), charge = 1, multiplicity = 1:

       Center              X                  Y                   Z               Mass
    ------------   -----------------  -----------------  -----------------  -----------------
      Gh(LI)          0.000000000000     0.000000000000     0.000000000000     7.016003436600
         LI           2.280000000000     0.000000000000     0.000000000000     7.016003436600

  Charge       = 1
  Multiplicity = 1
  Basis Set: AUG-CC-PVTZ
    Blend: AUG-CC-PVTZ
  Basis Set: (AUG-CC-PVTZ AUX)
    Blend: DEF2-UNIVERSAL-JKFIT

    Orbital Energies [Eh]
    ---------------------

    Doubly Occupied:

       1A     -2.792373

  @DF-RHF Final Energy:    -7.23638311734560

   => Energetics <=

    Nuclear Repulsion Energy =              0.0000000000000000
    One-Electron Energy =                  -8.8880194671543791
    Two-Electron Energy =                   1.6516363498087800
    Total Energy =                         -7.2363831173455990
 Dipole X            :         -8.6172384           12.9257267            4.3084883
 Dipole Y            :         -0.0000000            0.0000000           -0.0000000
 Dipole Z            :         -0.0000000            0.0000000           -0.0000000
 Magnitude           :                                                    4.3084883

    SAPT Results
  --------------------------------------------------------------------------------------------------------
    Electrostatics                232.08935346 [mEh]     145.63826806 [kcal/mol]     609.35051355 [kJ/mol]
      Elst10,r                    232.10500586 [mEh]     145.64809009 [kcal/mol]     609.39160893 [kJ/mol]
      Elst12,r                     -0.01565241 [mEh]      -0.00982203 [kcal/mol]      -0.04109539 [kJ/mol]

    Exchange                        0.00083795 [mEh]       0.00052582 [kcal/mol]       0.00220003 [kJ/mol]
      Exch10                        0.00265288 [mEh]       0.00166471 [kcal/mol]       0.00696513 [kJ/mol]
      Exch10(S^2)                   0.00265288 [mEh]       0.00166470 [kcal/mol]       0.00696512 [kJ/mol]
      Exch11(S^2)                  -0.00002780 [mEh]      -0.00001744 [kcal/mol]      -0.00007299 [kJ/mol]
      Exch12(S^2)                  -0.00178713 [mEh]      -0.00112144 [kcal/mol]      -0.00469212 [kJ/mol]

    Induction                      -0.47798724 [mEh]      -0.29994152 [kcal/mol]      -1.25495532 [kJ/mol]
      Ind20,r                      -0.46233098 [mEh]      -0.29011707 [kcal/mol]      -1.21384982 [kJ/mol]
      Ind22                        -0.01312133 [mEh]      -0.00823376 [kcal/mol]      -0.03445004 [kJ/mol]
      Exch-Ind20,r                  0.00056657 [mEh]       0.00035553 [kcal/mol]       0.00148753 [kJ/mol]
      Exch-Ind22                    0.00001608 [mEh]       0.00001009 [kcal/mol]       0.00004222 [kJ/mol]
      delta HF,r (2)               -0.00311758 [mEh]      -0.00195631 [kcal/mol]      -0.00818520 [kJ/mol]

    Dispersion                     -0.00779972 [mEh]      -0.00489440 [kcal/mol]      -0.02047815 [kJ/mol]
      Disp20                       -0.00644828 [mEh]      -0.00404636 [kcal/mol]      -0.01692995 [kJ/mol]
      Disp21                       -0.00093409 [mEh]      -0.00058615 [kcal/mol]      -0.00245246 [kJ/mol]
      Disp22 (SDQ)                 -0.00026902 [mEh]      -0.00016881 [kcal/mol]      -0.00070632 [kJ/mol]
      Disp22 (T)                   -0.00013289 [mEh]      -0.00008339 [kcal/mol]      -0.00034890 [kJ/mol]
      Est. Disp22 (T)              -0.00016420 [mEh]      -0.00010304 [kcal/mol]      -0.00043111 [kJ/mol]
      Exch-Disp20                   0.00001588 [mEh]       0.00000996 [kcal/mol]       0.00004169 [kJ/mol]

  Total HF                        231.64277675 [mEh]     145.35803694 [kcal/mol]     608.17802657 [kJ/mol]
  Total SAPT0                     231.63634435 [mEh]     145.35400055 [kcal/mol]     608.16113830 [kJ/mol]
  Total SAPT2                     231.60577176 [mEh]     145.33481596 [kcal/mol]     608.08086998 [kJ/mol]
  Total SAPT2+                    231.60440444 [mEh]     145.33395796 [kcal/mol]     608.07728009 [kJ/mol]

  Special recipe for scaled SAPT0 (see Manual):
    Electrostatics sSAPT0         232.10500586 [mEh]     145.64809009 [kcal/mol]     609.39160893 [kJ/mol]
    Exchange sSAPT0                 0.00265288 [mEh]       0.00166471 [kcal/mol]       0.00696513 [kJ/mol]
    Induction sSAPT0               -0.46488199 [mEh]      -0.29171785 [kcal/mol]      -1.22054750 [kJ/mol]
    Dispersion sSAPT0              -0.00643240 [mEh]      -0.00403639 [kcal/mol]      -0.01688827 [kJ/mol]
  Total sSAPT0                    231.63634435 [mEh]     145.35400055 [kcal/mol]     608.16113830 [kJ/mol]
  --------------------------------------------------------------------------------------------------------

*** Psi4 exiting successfully. Buy a developer a beer!
