                               Psi4 1.9 release

  ==> Input File <==

--------------------------------------------------------------------------
MEMORY 60 GB

molecule dimer {
1 1
Li     0.000000     0.000000     0.000000
--
1 1
Na     2.314000     0.000000     0.000000

units ang
no_reorient
no_com
symmetry c1
}

set {
basis        aug-cc-pVTZ
scf_type     df
}

energy("sapt2+")
--------------------------------------------------------------------------

  //              Dimer HF             //
    Molecular point group: c1
  Charge       = 2
  Multiplicity = 1
  Basis Set: AUG-CC-PVTZ
    Blend: AUG-CC-PVTZ
  Basis Set: (AUG-CC-PVTZ AUX)
    Blend: DEF2-UNIVERSAL-JKFIT
  @DF-RHF Final Energy:  -168.68460401896266
    Total Energy =                       -168.6846040189626592
 Dipole X            :        -43.7129925           48.1010888            4.3880963
 Dipole Y            :          0.0000000            0.0000000            0.0000000
 Dipole Z            :         -0.0000000            0.0000000           -0.0000000
 Magnitude           :                                                    4.3880963
  //            Monomer A HF           //
    Molecular point group: c1
  Multiplicity = 1
  Basis Set: AUG-CC-PVTZ
    Blend: AUG-CC-PVTZ
  Basis Set: (AUG-CC-PVTZ AUX)
    Blend: DEF2-UNIVERSAL-JKFIT
  @DF-RHF Final Energy:    -7.23638307849185
    Total Energy =                         -7.2363830784918477
  //            Monomer B HF           //
    Molecular point group: c1

    Geometry (in Angstrom), charge = 1, multiplicity = 1:

       Center              X                  Y                   Z               Mass
    ------------   -----------------  -----------------  -----------------  -----------------
      Gh(LI)          0.000000000000     0.000000000000     0.000000000000     7.016003436600
         NA           2.314000000000     0.000000000000     0.000000000000    22.989769282000

  Charge       = 1
  Multiplicity = 1
  Basis Set: AUG-CC-PVTZ
    Blend: AUG-CC-PVTZ
  Basis Set: (AUG-CC-PVTZ AUX)
    Blend: DEF2-UNIVERSAL-JKFIT

    Orbital Energies [Eh]
    ---------------------

    Doubly Occupied:

       1A    -40.761723     2A     -3.074357     3A     -1.797671
       4A     -1.797590     5A     -1.797590

  @DF-RHF Final Energy:  -161.67605764017742

   => Energetics <=

    Nuclear Repulsion Energy =              0.0000000000000000
    One-Electron Energy =                -224.8942553037245489
    Two-Electron Energy =                  63.2181976635471230
    Total Energy =                       -161.6760576401774188
 Dipole X            :        -43.7289196           48.1010888            4.3721692
 Dipole Y            :          0.0000000            0.0000000            0.0000000
 Dipole Z            :          0.0000000            0.0000000            0.0000000
 Magnitude           :                                                    4.3721692

    SAPT Results
  --------------------------------------------------------------------------------------------------------
    Electrostatics                228.64013204 [mEh]     143.47384894 [kcal/mol]     600.29458397 [kJ/mol]
      Elst10,r                    228.72917827 [mEh]     143.52972629 [kcal/mol]     600.52837480 [kJ/mol]
      Elst12,r                     -0.08904622 [mEh]      -0.05587735 [kcal/mol]      -0.23379083 [kJ/mol]

    Exchange                        0.06264393 [mEh]       0.03930966 [kcal/mol]       0.16447161 [kJ/mol]
      Exch10                        0.05569604 [mEh]       0.03494979 [kcal/mol]       0.14622994 [kJ/mol]
      Exch10(S^2)                   0.05569502 [mEh]       0.03494915 [kcal/mol]       0.14622726 [kJ/mol]
      Exch11(S^2)                  -0.00003956 [mEh]      -0.00002482 [kcal/mol]      -0.00010386 [kJ/mol]
      Exch12(S^2)                   0.00698744 [mEh]       0.00438469 [kcal/mol]       0.01834553 [kJ/mol]

    Induction                      -1.01181601 [mEh]      -0.63492413 [kcal/mol]      -2.65652256 [kJ/mol]
      Ind20,r                      -0.94629921 [mEh]      -0.59381172 [kcal/mol]      -2.48450824 [kJ/mol]
      Ind22                        -0.06490826 [mEh]      -0.04073055 [kcal/mol]      -0.17041661 [kJ/mol]
      Exch-Ind20,r                  0.01846947 [mEh]       0.01158976 [kcal/mol]       0.04849158 [kJ/mol]
      Exch-Ind22                    0.00126685 [mEh]       0.00079496 [kcal/mol]       0.00332612 [kJ/mol]
      delta HF,r (2)               -0.02034486 [mEh]      -0.01276659 [kcal/mol]      -0.05341541 [kJ/mol]

    Dispersion                     -0.02358851 [mEh]      -0.01480201 [kcal/mol]      -0.06193162 [kJ/mol]
      Disp20                       -0.01853849 [mEh]      -0.01163308 [kcal/mol]      -0.04867280 [kJ/mol]
      Disp21                       -0.00292647 [mEh]      -0.00183639 [kcal/mol]      -0.00768345 [kJ/mol]
      Disp22 (SDQ)                 -0.00153119 [mEh]      -0.00096083 [kcal/mol]      -0.00402013 [kJ/mol]
      Disp22 (T)                   -0.00054877 [mEh]      -0.00034436 [kcal/mol]      -0.00144080 [kJ/mol]
      Est. Disp22 (T)              -0.00069374 [mEh]      -0.00043533 [kcal/mol]      -0.00182142 [kJ/mol]
      Exch-Disp20                   0.00010138 [mEh]       0.00006362 [kcal/mol]       0.00026617 [kJ/mol]

  Total HF                        227.83669971 [mEh]     142.96968754 [kcal/mol]     598.18517267 [kJ/mol]
  Total SAPT0                     227.81826260 [mEh]     142.95811808 [kcal/mol]     598.13676604 [kJ/mol]
  Total SAPT2                     227.67252285 [mEh]     142.86666501 [kcal/mol]     597.75412639 [kJ/mol]
  Total SAPT2+                    227.66737145 [mEh]     142.86343246 [kcal/mol]     597.74060140 [kJ/mol]

  Special recipe for scaled SAPT0 (see Manual):
    Electrostatics sSAPT0         228.72917827 [mEh]     143.52972629 [kcal/mol]     600.52837480 [kJ/mol]
    Exchange sSAPT0                 0.05569604 [mEh]       0.03494979 [kcal/mol]       0.14622994 [kJ/mol]
    Induction sSAPT0               -0.94817359 [mEh]      -0.59498791 [kcal/mol]      -2.48942941 [kJ/mol]
    Dispersion sSAPT0              -0.01843710 [mEh]      -0.01156946 [kcal/mol]      -0.04840661 [kJ/mol]
  Total sSAPT0                    227.81826362 [mEh]     142.95811872 [kcal/mol]     598.13676872 [kJ/mol]
  --------------------------------------------------------------------------------------------------------

*** Psi4 exiting successfully. Buy a developer a beer!
