                               Psi4 1.9 release

  ==> Input File <==

--------------------------------------------------------------------------
MEMORY 60 GB

molecule dimer {
1 1
Li     0.000000     0.000000     0.000000
--
1 1
Na     2.136000     0.000000     0.000000

units ang
no_reorient
no_com
symmetry c1
}

set {
basis        aug-cc-pVTZ
scf_type     df
}

energy("sapt2+")
--------------------------------------------------------------------------

  //              Dimer HF             //
    Molecular point group: c1
  Charge       = 2
  Multiplicity = 1
  Basis Set: AUG-CC-PVTZ
    Blend: AUG-CC-PVTZ
  Basis Set: (AUG-CC-PVTZ AUX)
    Blend: DEF2-UNIVERSAL-JKFIT
  @DF-RHF Final Energy:  -168.66578741460617
    Total Energy =                       -168.6657874146061715
 Dipole X            :        -40.3465958           44.4010050            4.0544092
 Dipole Y            :         -0.0000000            0.0000000           -0.0000000
 Dipole Z            :         -0.0000000            0.0000000           -0.0000000
 Magnitude           :                                                    4.0544092
  //            Monomer A HF           //
    Molecular point group: c1
  Multiplicity = 1
  Basis Set: AUG-CC-PVTZ
    Blend: AUG-CC-PVTZ
  Basis Set: (AUG-CC-PVTZ AUX)
    Blend: DEF2-UNIVERSAL-JKFIT
  @DF-RHF Final Energy:    -7.23638311167200
    Total Energy =                         -7.2363831116719952
  //            Monomer B HF           //
    Molecular point group: c1

    Geometry (in Angstrom), charge = 1, multiplicity = 1:

       Center              X                  Y                   Z               Mass
    ------------   -----------------  -----------------  -----------------  -----------------
      Gh(LI)          0.000000000000     0.000000000000     0.000000000000     7.016003436600
         NA           2.136000000000     0.000000000000     0.000000000000    22.989769282000

  Charge       = 1
  Multiplicity = 1
  Basis Set: AUG-CC-PVTZ
    Blend: AUG-CC-PVTZ
  Basis Set: (AUG-CC-PVTZ AUX)
    Blend: DEF2-UNIVERSAL-JKFIT

    Orbital Energies [Eh]
    ---------------------

    Doubly Occupied:

       1A    -40.761423     2A     -3.074228     3A     -1.797566
       4A     -1.797472     5A     -1.797472

  @DF-RHF Final Energy:  -161.67606045524423

   => Energetics <=

    Nuclear Repulsion Energy =              0.0000000000000000
    One-Electron Energy =                -224.8958000559213986
    Two-Electron Energy =                  63.2197396006771868
    Total Energy =                       -161.6760604552442260
 Dipole X            :        -40.3652339           44.4010050            4.0357711
 Dipole Y            :          0.0000000            0.0000000            0.0000000
 Dipole Z            :          0.0000000            0.0000000            0.0000000
 Magnitude           :                                                    4.0357711

    SAPT Results
  --------------------------------------------------------------------------------------------------------
    Electrostatics                247.65681165 [mEh]     155.40699555 [kcal/mol]     650.22286940 [kJ/mol]
      Elst10,r                    247.78917768 [mEh]     155.49005650 [kcal/mol]     650.57039638 [kJ/mol]
      Elst12,r                     -0.13236603 [mEh]      -0.08306094 [kcal/mol]      -0.34752698 [kJ/mol]

    Exchange                        0.20583115 [mEh]       0.12916100 [kcal/mol]       0.54040961 [kJ/mol]
      Exch10                        0.18587777 [mEh]       0.11664006 [kcal/mol]       0.48802202 [kJ/mol]
      Exch10(S^2)                   0.18586703 [mEh]       0.11663332 [kcal/mol]       0.48799382 [kJ/mol]
      Exch11(S^2)                  -0.00026065 [mEh]      -0.00016356 [kcal/mol]      -0.00068433 [kJ/mol]
      Exch12(S^2)                   0.02021403 [mEh]       0.01268449 [kcal/mol]       0.05307192 [kJ/mol]

    Induction                      -1.41393319 [mEh]      -0.88725647 [kcal/mol]      -3.71228108 [kJ/mol]
      Ind20,r                      -1.34891418 [mEh]      -0.84645643 [kcal/mol]      -3.54157369 [kJ/mol]
      Ind22                        -0.09943507 [mEh]      -0.06239645 [kcal/mol]      -0.26106675 [kJ/mol]
      Exch-Ind20,r                  0.05975764 [mEh]       0.03749849 [kcal/mol]       0.15689367 [kJ/mol]
      Exch-Ind22                    0.00440503 [mEh]       0.00276420 [kcal/mol]       0.01156540 [kJ/mol]
      delta HF,r (2)               -0.02974661 [mEh]      -0.01866628 [kcal/mol]      -0.07809971 [kJ/mol]

    Dispersion                     -0.04053062 [mEh]      -0.02543335 [kcal/mol]      -0.10641312 [kJ/mol]
      Disp20                       -0.03181207 [mEh]      -0.01996238 [kcal/mol]      -0.08352259 [kJ/mol]
      Disp21                       -0.00495733 [mEh]      -0.00311077 [kcal/mol]      -0.01301546 [kJ/mol]
      Disp22 (SDQ)                 -0.00261475 [mEh]      -0.00164078 [kcal/mol]      -0.00686502 [kJ/mol]
      Disp22 (T)                   -0.00091809 [mEh]      -0.00057611 [kcal/mol]      -0.00241044 [kJ/mol]
      Est. Disp22 (T)              -0.00119349 [mEh]      -0.00074893 [kcal/mol]      -0.00313352 [kJ/mol]
      Exch-Disp20                   0.00004702 [mEh]       0.00002951 [kcal/mol]       0.00012346 [kJ/mol]

  Total HF                        246.65615231 [mEh]     154.77907234 [kcal/mol]     647.59563867 [kJ/mol]
  Total SAPT0                     246.62438726 [mEh]     154.75913947 [kcal/mol]     647.51223955 [kJ/mol]
  Total SAPT2                     246.41694456 [mEh]     154.62896721 [kcal/mol]     646.96759881 [kJ/mol]
  Total SAPT2+                    246.40817899 [mEh]     154.62346673 [kcal/mol]     646.94458482 [kJ/mol]

  Special recipe for scaled SAPT0 (see Manual):
    Electrostatics sSAPT0         247.78917768 [mEh]     155.49005650 [kcal/mol]     650.57039638 [kJ/mol]
    Exchange sSAPT0                 0.18587777 [mEh]       0.11664006 [kcal/mol]       0.48802202 [kJ/mol]
    Induction sSAPT0               -1.31889278 [mEh]      -0.82761772 [kcal/mol]      -3.46275253 [kJ/mol]
    Dispersion sSAPT0              -0.03176504 [mEh]      -0.01993286 [kcal/mol]      -0.08339910 [kJ/mol]
  Total sSAPT0                    246.62439763 [mEh]     154.75914598 [kcal/mol]     647.51226677 [kJ/mol]
  --------------------------------------------------------------------------------------------------------

*** Psi4 exiting successfully. Buy a developer a beer!
