                               Psi4 1.9 release

  ==> Input File <==

--------------------------------------------------------------------------
MEMORY 60 GB

molecule dimer {
1 1
Li     0.000000     0.000000     0.000000
--
1 1
Na     1.780000     0.000000     0.000000

units ang
no_reorient
no_com
symmetry c1
}

set {
basis        aug-cc-pVTZ
scf_type     df
}

energy("sapt2+")
--------------------------------------------------------------------------

  //              Dimer HF             //
    Molecular point group: c1
  Charge       = 2
  Multiplicity = 1
  Basis Set: AUG-CC-PVTZ
    Blend: AUG-CC-PVTZ
  Basis Set: (AUG-CC-PVTZ AUX)
    Blend: DEF2-UNIVERSAL-JKFIT
  @DF-RHF Final Energy:  -168.61574766401026
    Total Energy =                       -168.6157476640102573
 Dipole X            :        -33.6126518           37.0008375            3.3881858
 Dipole Y            :         -0.0000000            0.0000000           -0.0000000
 Dipole Z            :         -0.0000000            0.0000000           -0.0000000
 Magnitude           :                                                    3.3881858
  //            Monomer A HF           //
    Molecular point group: c1
  Multiplicity = 1
  Basis Set: AUG-CC-PVTZ
    Blend: AUG-CC-PVTZ
  Basis Set: (AUG-CC-PVTZ AUX)
    Blend: DEF2-UNIVERSAL-JKFIT
  @DF-RHF Final Energy:    -7.23638340935083
    Total Energy =                         -7.2363834093508252
  //            Monomer B HF           //
    Molecular point group: c1

    Geometry (in Angstrom), charge = 1, multiplicity = 1:

       Center              X                  Y                   Z               Mass
    ------------   -----------------  -----------------  -----------------  -----------------
      Gh(LI)          0.000000000000     0.000000000000     0.000000000000     7.016003436600
         NA           1.780000000000     0.000000000000     0.000000000000    22.989769282000

  Charge       = 1
  Multiplicity = 1
  Basis Set: AUG-CC-PVTZ
    Blend: AUG-CC-PVTZ
  Basis Set: (AUG-CC-PVTZ AUX)
    Blend: DEF2-UNIVERSAL-JKFIT

    Orbital Energies [Eh]
    ---------------------

    Doubly Occupied:

       1A    -40.760762     2A     -3.073959     3A     -1.797296
       4A     -1.797257     5A     -1.797257

  @DF-RHF Final Energy:  -161.67606457322719

   => Energetics <=

    Nuclear Repulsion Energy =              0.0000000000000000
    One-Electron Energy =                -224.8990686762712414
    Two-Electron Energy =                  63.2230041030440546
    Total Energy =                       -161.6760645732271939
 Dipole X            :        -33.6379280           37.0008375            3.3629095
 Dipole Y            :          0.0000000            0.0000000            0.0000000
 Dipole Z            :         -0.0000000            0.0000000           -0.0000000
 Magnitude           :                                                    3.3629095

    SAPT Results
  --------------------------------------------------------------------------------------------------------
    Electrostatics                296.91125972 [mEh]     186.31462834 [kcal/mol]     779.54040499 [kJ/mol]
      Elst10,r                    297.25761794 [mEh]     186.53197141 [kcal/mol]     780.44976837 [kJ/mol]
      Elst12,r                     -0.34635822 [mEh]      -0.21734306 [kcal/mol]      -0.90936338 [kJ/mol]

    Exchange                        2.18860573 [mEh]       1.37337083 [kcal/mol]       5.74618354 [kJ/mol]
      Exch10                        2.02229577 [mEh]       1.26900976 [kcal/mol]       5.30953682 [kJ/mol]
      Exch10(S^2)                   2.02118357 [mEh]       1.26831184 [kcal/mol]       5.30661673 [kJ/mol]
      Exch11(S^2)                  -0.00928526 [mEh]      -0.00582659 [kcal/mol]      -0.02437843 [kJ/mol]
      Exch12(S^2)                   0.17559521 [mEh]       0.11018766 [kcal/mol]       0.46102516 [kJ/mol]

    Induction                      -2.79918822 [mEh]      -1.75651712 [kcal/mol]      -7.34926765 [kJ/mol]
      Ind20,r                      -3.14927214 [mEh]      -1.97619810 [kcal/mol]      -8.26841286 [kJ/mol]
      Ind22                        -0.27192804 [mEh]      -0.17063742 [kcal/mol]      -0.71394697 [kJ/mol]
      Exch-Ind20,r                  0.60610539 [mEh]       0.38033687 [kcal/mol]       1.59132948 [kJ/mol]
      Exch-Ind22                    0.05233497 [mEh]       0.03284069 [kcal/mol]       0.13740543 [kJ/mol]
      delta HF,r (2)               -0.03642839 [mEh]      -0.02285916 [kcal/mol]      -0.09564273 [kJ/mol]

    Dispersion                     -0.12482139 [mEh]      -0.07832661 [kcal/mol]      -0.32771852 [kJ/mol]
      Disp20                       -0.09921263 [mEh]      -0.06225687 [kcal/mol]      -0.26048273 [kJ/mol]
      Disp21                       -0.01477008 [mEh]      -0.00926837 [kcal/mol]      -0.03877885 [kJ/mol]
      Disp22 (SDQ)                 -0.00797418 [mEh]      -0.00500387 [kcal/mol]      -0.02093620 [kJ/mol]
      Disp22 (T)                   -0.00286648 [mEh]      -0.00179874 [kcal/mol]      -0.00752594 [kJ/mol]
      Est. Disp22 (T)              -0.00379952 [mEh]      -0.00238424 [kcal/mol]      -0.00997564 [kJ/mol]
      Exch-Disp20                   0.00093502 [mEh]       0.00058674 [kcal/mol]       0.00245490 [kJ/mol]

  Total HF                        296.70031857 [mEh]     186.18226077 [kcal/mol]     778.98657908 [kJ/mol]
  Total SAPT0                     296.60204096 [mEh]     186.12059064 [kcal/mol]     778.72855125 [kJ/mol]
  Total SAPT2                     296.20239962 [mEh]     185.86981192 [kcal/mol]     777.67929306 [kJ/mol]
  Total SAPT2+                    296.17585584 [mEh]     185.85315544 [kcal/mol]     777.60960237 [kJ/mol]

  Special recipe for scaled SAPT0 (see Manual):
    Electrostatics sSAPT0         297.25761794 [mEh]     186.53197141 [kcal/mol]     780.44976837 [kJ/mol]
    Exchange sSAPT0                 2.02229577 [mEh]       1.26900976 [kcal/mol]       5.30953682 [kJ/mol]
    Induction sSAPT0               -2.57859402 [mEh]      -1.61809218 [kcal/mol]      -6.77009766 [kJ/mol]
    Dispersion sSAPT0              -0.09827606 [mEh]      -0.06166916 [kcal/mol]      -0.25802377 [kJ/mol]
  Total sSAPT0                    296.60304363 [mEh]     186.12121983 [kcal/mol]     778.73118375 [kJ/mol]
  --------------------------------------------------------------------------------------------------------

*** Psi4 exiting successfully. Buy a developer a beer!
