                               Psi4 1.9 release

  ==> Input File <==

--------------------------------------------------------------------------
MEMORY 60 GB

molecule dimer {
1 1
Li     0.000000     0.000000     0.000000
--
1 1
Na     2.492000     0.000000     0.000000

units ang
no_reorient
no_com
symmetry c1
}

set {
basis        aug-cc-pVTZ
scf_type     df
}

energy("sapt2+")
--------------------------------------------------------------------------

  //              Dimer HF             //
    Molecular point group: c1
  Charge       = 2
  Multiplicity = 1
  Basis Set: AUG-CC-PVTZ
    Blend: AUG-CC-PVTZ
  Basis Set: (AUG-CC-PVTZ AUX)
    Blend: DEF2-UNIVERSAL-JKFIT
  @DF-RHF Final Energy:  -168.70072179861418
    Total Energy =                       -168.7007217986141825
 Dipole X            :        -47.0787020           51.8011726            4.7224705
 Dipole Y            :         -0.0000000            0.0000000           -0.0000000
 Dipole Z            :         -0.0000000            0.0000000           -0.0000000
 Magnitude           :                                                    4.7224705
  //            Monomer A HF           //
    Molecular point group: c1
  Multiplicity = 1
  Basis Set: AUG-CC-PVTZ
    Blend: AUG-CC-PVTZ
  Basis Set: (AUG-CC-PVTZ AUX)
    Blend: DEF2-UNIVERSAL-JKFIT
  @DF-RHF Final Energy:    -7.23638311100860
    Total Energy =                         -7.2363831110085997
  //            Monomer B HF           //
    Molecular point group: c1

    Geometry (in Angstrom), charge = 1, multiplicity = 1:

       Center              X                  Y                   Z               Mass
    ------------   -----------------  -----------------  -----------------  -----------------
      Gh(LI)          0.000000000000     0.000000000000     0.000000000000     7.016003436600
         NA           2.492000000000     0.000000000000     0.000000000000    22.989769282000

  Charge       = 1
  Multiplicity = 1
  Basis Set: AUG-CC-PVTZ
    Blend: AUG-CC-PVTZ
  Basis Set: (AUG-CC-PVTZ AUX)
    Blend: DEF2-UNIVERSAL-JKFIT

    Orbital Energies [Eh]
    ---------------------

    Doubly Occupied:

       1A    -40.762014     2A     -3.074496     3A     -1.797781
       4A     -1.797719     5A     -1.797719

  @DF-RHF Final Energy:  -161.67605367747188

   => Energetics <=

    Nuclear Repulsion Energy =              0.0000000000000000
    One-Electron Energy =                -224.8926512165644169
    Two-Electron Energy =                  63.2165975390925325
    Total Energy =                       -161.6760536774718844
 Dipole X            :        -47.0925940           51.8011726            4.7085786
 Dipole Y            :         -0.0000000            0.0000000           -0.0000000
 Dipole Z            :         -0.0000000            0.0000000           -0.0000000
 Magnitude           :                                                    4.7085786

    SAPT Results
  --------------------------------------------------------------------------------------------------------
    Electrostatics                212.32225834 [mEh]     133.23422860 [kcal/mol]     557.45201247 [kJ/mol]
      Elst10,r                    212.38785348 [mEh]     133.27539017 [kcal/mol]     557.62423248 [kJ/mol]
      Elst12,r                     -0.06559514 [mEh]      -0.04116157 [kcal/mol]      -0.17222001 [kJ/mol]

    Exchange                        0.01829634 [mEh]       0.01148112 [kcal/mol]       0.04803702 [kJ/mol]
      Exch10                        0.01659651 [mEh]       0.01041447 [kcal/mol]       0.04357414 [kJ/mol]
      Exch10(S^2)                   0.01659642 [mEh]       0.01041441 [kcal/mol]       0.04357389 [kJ/mol]
      Exch11(S^2)                  -0.00002755 [mEh]      -0.00001729 [kcal/mol]      -0.00007234 [kJ/mol]
      Exch12(S^2)                   0.00172737 [mEh]       0.00108394 [kcal/mol]       0.00453522 [kJ/mol]

    Induction                      -0.73401717 [mEh]      -0.46060273 [kcal/mol]      -1.92716181 [kJ/mol]
      Ind20,r                      -0.68174227 [mEh]      -0.42779973 [kcal/mol]      -1.78991408 [kJ/mol]
      Ind22                        -0.04492854 [mEh]      -0.02819309 [kcal/mol]      -0.11795987 [kJ/mol]
      Exch-Ind20,r                  0.00563713 [mEh]       0.00353735 [kcal/mol]       0.01480029 [kJ/mol]
      Exch-Ind22                    0.00037150 [mEh]       0.00023312 [kcal/mol]       0.00097538 [kJ/mol]
      delta HF,r (2)               -0.01335499 [mEh]      -0.00838038 [kcal/mol]      -0.03506353 [kJ/mol]

    Dispersion                     -0.01393996 [mEh]      -0.00874746 [kcal/mol]      -0.03659937 [kJ/mol]
      Disp20                       -0.01097627 [mEh]      -0.00688771 [kcal/mol]      -0.02881820 [kJ/mol]
      Disp21                       -0.00174662 [mEh]      -0.00109602 [kcal/mol]      -0.00458575 [kJ/mol]
      Disp22 (SDQ)                 -0.00090318 [mEh]      -0.00056676 [kcal/mol]      -0.00237131 [kJ/mol]
      Disp22 (T)                   -0.00032792 [mEh]      -0.00020577 [kcal/mol]      -0.00086095 [kJ/mol]
      Est. Disp22 (T)              -0.00040292 [mEh]      -0.00025283 [kcal/mol]      -0.00105785 [kJ/mol]
      Exch-Disp20                   0.00008902 [mEh]       0.00005586 [kcal/mol]       0.00023373 [kJ/mol]

  Total HF                        211.71498987 [mEh]     132.85316188 [kcal/mol]     555.85762931 [kJ/mol]
  Total SAPT0                     211.70410262 [mEh]     132.84633003 [kcal/mol]     555.82904485 [kJ/mol]
  Total SAPT2                     211.59565026 [mEh]     132.77827515 [kcal/mol]     555.54430323 [kJ/mol]
  Total SAPT2+                    211.59259755 [mEh]     132.77635954 [kcal/mol]     555.53628832 [kJ/mol]

  Special recipe for scaled SAPT0 (see Manual):
    Electrostatics sSAPT0         212.38785348 [mEh]     133.27539017 [kcal/mol]     557.62423248 [kJ/mol]
    Exchange sSAPT0                 0.01659651 [mEh]       0.01041447 [kcal/mol]       0.04357414 [kJ/mol]
    Induction sSAPT0               -0.68946003 [mEh]      -0.43264270 [kcal/mol]      -1.81017706 [kJ/mol]
    Dispersion sSAPT0              -0.01088725 [mEh]      -0.00683185 [kcal/mol]      -0.02858446 [kJ/mol]
  Total sSAPT0                    211.70410272 [mEh]     132.84633009 [kcal/mol]     555.82904511 [kJ/mol]
  --------------------------------------------------------------------------------------------------------

*** Psi4 exiting successfully. Buy a developer a beer!
