                               Psi4 1.9 release

  ==> Input File <==

--------------------------------------------------------------------------
MEMORY 60 GB

molecule dimer {
1 1
Li     0.000000     0.000000     0.000000
--
1 1
Na     1.958000     0.000000     0.000000

units ang
no_reorient
no_com
symmetry c1
}

set {
basis        aug-cc-pVTZ
scf_type     df
}

energy("sapt2+")
--------------------------------------------------------------------------

  //              Dimer HF             //
    Molecular point group: c1
  Charge       = 2
  Multiplicity = 1
  Basis Set: AUG-CC-PVTZ
    Blend: AUG-CC-PVTZ
  Basis Set: (AUG-CC-PVTZ AUX)
    Blend: DEF2-UNIVERSAL-JKFIT
  @DF-RHF Final Energy:  -168.64337505785642
    Total Energy =                       -168.6433750578563888
 Dipole X            :        -36.9796105           40.7009213            3.7213108
 Dipole Y            :         -0.0000000            0.0000000           -0.0000000
 Dipole Z            :          0.0000000            0.0000000            0.0000000
 Magnitude           :                                                    3.7213108
  //            Monomer A HF           //
    Molecular point group: c1
  Multiplicity = 1
  Basis Set: AUG-CC-PVTZ
    Blend: AUG-CC-PVTZ
  Basis Set: (AUG-CC-PVTZ AUX)
    Blend: DEF2-UNIVERSAL-JKFIT
  @DF-RHF Final Energy:    -7.23638324209101
    Total Energy =                         -7.2363832420910121
  //            Monomer B HF           //
    Molecular point group: c1

    Geometry (in Angstrom), charge = 1, multiplicity = 1:

       Center              X                  Y                   Z               Mass
    ------------   -----------------  -----------------  -----------------  -----------------
      Gh(LI)          0.000000000000     0.000000000000     0.000000000000     7.016003436600
         NA           1.958000000000     0.000000000000     0.000000000000    22.989769282000

  Charge       = 1
  Multiplicity = 1
  Basis Set: AUG-CC-PVTZ
    Blend: AUG-CC-PVTZ
  Basis Set: (AUG-CC-PVTZ AUX)
    Blend: DEF2-UNIVERSAL-JKFIT

    Orbital Energies [Eh]
    ---------------------

    Doubly Occupied:

       1A    -40.761085     2A     -3.074091     3A     -1.797439
       4A     -1.797356     5A     -1.797356

  @DF-RHF Final Energy:  -161.67606277748831

   => Energetics <=

    Nuclear Repulsion Energy =              0.0000000000000000
    One-Electron Energy =                -224.8974709944928065
    Two-Electron Energy =                  63.2214082170044946
    Total Energy =                       -161.6760627774883119
 Dipole X            :        -37.0015628           40.7009213            3.6993585
 Dipole Y            :          0.0000000            0.0000000            0.0000000
 Dipole Z            :         -0.0000000            0.0000000           -0.0000000
 Magnitude           :                                                    3.6993585

    SAPT Results
  --------------------------------------------------------------------------------------------------------
    Electrostatics                270.08963478 [mEh]     169.48380460 [kcal/mol]     709.12023843 [kJ/mol]
      Elst10,r                    270.30031780 [mEh]     169.61601018 [kcal/mol]     709.67338661 [kJ/mol]
      Elst12,r                     -0.21068301 [mEh]      -0.13220559 [kcal/mol]      -0.55314818 [kJ/mol]

    Exchange                        0.67319082 [mEh]       0.42243362 [kcal/mol]       1.76746226 [kJ/mol]
      Exch10                        0.61605480 [mEh]       0.38658022 [kcal/mol]       1.61745166 [kJ/mol]
      Exch10(S^2)                   0.61594401 [mEh]       0.38651070 [kcal/mol]       1.61716078 [kJ/mol]
      Exch11(S^2)                  -0.00175297 [mEh]      -0.00110000 [kcal/mol]      -0.00460241 [kJ/mol]
      Exch12(S^2)                   0.05888899 [mEh]       0.03695340 [kcal/mol]       0.15461302 [kJ/mol]

    Induction                      -1.99025249 [mEh]      -1.24890229 [kcal/mol]      -5.22540720 [kJ/mol]
      Ind20,r                      -1.99896001 [mEh]      -1.25436634 [kcal/mol]      -5.24826878 [kJ/mol]
      Ind22                        -0.16015808 [mEh]      -0.10050071 [kcal/mol]      -0.42049499 [kJ/mol]
      Exch-Ind20,r                  0.19116739 [mEh]       0.11995935 [kcal/mol]       0.50190992 [kJ/mol]
      Exch-Ind22                    0.01531647 [mEh]       0.00961123 [kcal/mol]       0.04021338 [kJ/mol]
      delta HF,r (2)               -0.03761826 [mEh]      -0.02360581 [kcal/mol]      -0.09876673 [kJ/mol]

    Dispersion                     -0.07052746 [mEh]      -0.04425665 [kcal/mol]      -0.18516982 [kJ/mol]
      Disp20                       -0.05546891 [mEh]      -0.03480726 [kcal/mol]      -0.14563359 [kJ/mol]
      Disp21                       -0.00848724 [mEh]      -0.00532583 [kcal/mol]      -0.02228325 [kJ/mol]
      Disp22 (SDQ)                 -0.00451903 [mEh]      -0.00283574 [kcal/mol]      -0.01186472 [kJ/mol]
      Disp22 (T)                   -0.00161649 [mEh]      -0.00101436 [kcal/mol]      -0.00424409 [kJ/mol]
      Est. Disp22 (T)              -0.00210182 [mEh]      -0.00131891 [kcal/mol]      -0.00551832 [kJ/mol]
      Exch-Disp20                   0.00004954 [mEh]       0.00003109 [kcal/mol]       0.00013007 [kJ/mol]

  Total HF                        269.07096172 [mEh]     168.84457760 [kcal/mol]     706.44571268 [kJ/mol]
  Total SAPT0                     269.01554236 [mEh]     168.80980142 [kcal/mol]     706.30020915 [kJ/mol]
  Total SAPT2                     268.71715375 [mEh]     168.62255974 [kcal/mol]     705.51678997 [kJ/mol]
  Total SAPT2+                    268.70204565 [mEh]     168.61307927 [kcal/mol]     705.47712367 [kJ/mol]

  Special recipe for scaled SAPT0 (see Manual):
    Electrostatics sSAPT0         270.30031780 [mEh]     169.61601018 [kcal/mol]     709.67338661 [kJ/mol]
    Exchange sSAPT0                 0.61605480 [mEh]       0.38658022 [kcal/mol]       1.61745166 [kJ/mol]
    Induction sSAPT0               -1.84530770 [mEh]      -1.15794807 [kcal/mol]      -4.84485470 [kJ/mol]
    Dispersion sSAPT0              -0.05541934 [mEh]      -0.03477616 [kcal/mol]      -0.14550346 [kJ/mol]
  Total sSAPT0                    269.01564556 [mEh]     168.80986618 [kcal/mol]     706.30048010 [kJ/mol]
  --------------------------------------------------------------------------------------------------------

*** Psi4 exiting successfully. Buy a developer a beer!
