                               Psi4 1.9 release

  ==> Input File <==

--------------------------------------------------------------------------
MEMORY 60 GB

molecule dimer {
1 1
Li     0.000000     0.000000     0.000000
--
1 1
Na     2.670000     0.000000     0.000000

units ang
no_reorient
no_com
symmetry c1
}

set {
basis        aug-cc-pVTZ
scf_type     df
}

energy("sapt2+")
--------------------------------------------------------------------------

  //              Dimer HF             //
    Molecular point group: c1
  Charge       = 2
  Multiplicity = 1
  Basis Set: AUG-CC-PVTZ
    Blend: AUG-CC-PVTZ
  Basis Set: (AUG-CC-PVTZ AUX)
    Blend: DEF2-UNIVERSAL-JKFIT
  @DF-RHF Final Energy:  -168.71471241946497
    Total Energy =                       -168.7147124194649734
 Dipole X            :        -50.4439674           55.5012563            5.0572889
 Dipole Y            :         -0.0000000            0.0000000           -0.0000000
 Dipole Z            :          0.0000000            0.0000000            0.0000000
 Magnitude           :                                                    5.0572889
  //            Monomer A HF           //
    Molecular point group: c1
  Multiplicity = 1
  Basis Set: AUG-CC-PVTZ
    Blend: AUG-CC-PVTZ
  Basis Set: (AUG-CC-PVTZ AUX)
    Blend: DEF2-UNIVERSAL-JKFIT
  @DF-RHF Final Energy:    -7.23638312821520
    Total Energy =                         -7.2363831282152047
  //            Monomer B HF           //
    Molecular point group: c1

    Geometry (in Angstrom), charge = 1, multiplicity = 1:

       Center              X                  Y                   Z               Mass
    ------------   -----------------  -----------------  -----------------  -----------------
      Gh(LI)          0.000000000000     0.000000000000     0.000000000000     7.016003436600
         NA           2.670000000000     0.000000000000     0.000000000000    22.989769282000

  Charge       = 1
  Multiplicity = 1
  Basis Set: AUG-CC-PVTZ
    Blend: AUG-CC-PVTZ
  Basis Set: (AUG-CC-PVTZ AUX)
    Blend: DEF2-UNIVERSAL-JKFIT

    Orbital Energies [Eh]
    ---------------------

    Doubly Occupied:

       1A    -40.762337     2A     -3.074654     3A     -1.797915
       4A     -1.797863     5A     -1.797863

  @DF-RHF Final Energy:  -161.67604848434513

   => Energetics <=

    Nuclear Repulsion Energy =              0.0000000000000000
    One-Electron Energy =                -224.8908345869448056
    Two-Electron Energy =                  63.2147861025996889
    Total Energy =                       -161.6760484843451309
 Dipole X            :        -50.4562585           55.5012563            5.0449979
 Dipole Y            :         -0.0000000            0.0000000           -0.0000000
 Dipole Z            :         -0.0000000            0.0000000           -0.0000000
 Magnitude           :                                                    5.0449979

    SAPT Results
  --------------------------------------------------------------------------------------------------------
    Electrostatics                198.17276115 [mEh]     124.35528507 [kcal/mol]     520.30251272 [kJ/mol]
      Elst10,r                    198.22398048 [mEh]     124.38742568 [kcal/mol]     520.43698905 [kJ/mol]
      Elst12,r                     -0.05121933 [mEh]      -0.03214061 [kcal/mol]      -0.13447633 [kJ/mol]

    Exchange                        0.00431128 [mEh]       0.00270537 [kcal/mol]       0.01131926 [kJ/mol]
      Exch10                        0.00491697 [mEh]       0.00308545 [kcal/mol]       0.01290951 [kJ/mol]
      Exch10(S^2)                   0.00491696 [mEh]       0.00308544 [kcal/mol]       0.01290949 [kJ/mol]
      Exch11(S^2)                  -0.00002969 [mEh]      -0.00001863 [kcal/mol]      -0.00007796 [kJ/mol]
      Exch12(S^2)                  -0.00057600 [mEh]      -0.00036145 [kcal/mol]      -0.00151229 [kJ/mol]

    Induction                      -0.54243912 [mEh]      -0.34038569 [kcal/mol]      -1.42417371 [kJ/mol]
      Ind20,r                      -0.50263628 [mEh]      -0.31540903 [kcal/mol]      -1.31967138 [kJ/mol]
      Ind22                        -0.03284635 [mEh]      -0.02061140 [kcal/mol]      -0.08623809 [kJ/mol]
      Exch-Ind20,r                  0.00170768 [mEh]       0.00107159 [kcal/mol]       0.00448353 [kJ/mol]
      Exch-Ind22                    0.00011159 [mEh]       0.00007003 [kcal/mol]       0.00029299 [kJ/mol]
      delta HF,r (2)               -0.00877576 [mEh]      -0.00550687 [kcal/mol]      -0.02304075 [kJ/mol]

    Dispersion                     -0.00846949 [mEh]      -0.00531468 [kcal/mol]      -0.02223664 [kJ/mol]
      Disp20                       -0.00667205 [mEh]      -0.00418678 [kcal/mol]      -0.01751747 [kJ/mol]
      Disp21                       -0.00106535 [mEh]      -0.00066851 [kcal/mol]      -0.00279707 [kJ/mol]
      Disp22 (SDQ)                 -0.00054260 [mEh]      -0.00034049 [kcal/mol]      -0.00142460 [kJ/mol]
      Disp22 (T)                   -0.00020277 [mEh]      -0.00012724 [kcal/mol]      -0.00053237 [kJ/mol]
      Est. Disp22 (T)              -0.00024212 [mEh]      -0.00015193 [kcal/mol]      -0.00063569 [kJ/mol]
      Exch-Disp20                   0.00005264 [mEh]       0.00003303 [kcal/mol]       0.00013820 [kJ/mol]

  Total HF                        197.71919310 [mEh]     124.07066681 [kcal/mol]     519.11166995 [kJ/mol]
  Total SAPT0                     197.71257368 [mEh]     124.06651307 [kcal/mol]     519.09429068 [kJ/mol]
  Total SAPT2                     197.62801390 [mEh]     124.01345100 [kcal/mol]     518.87227900 [kJ/mol]
  Total SAPT2+                    197.62616383 [mEh]     124.01229007 [kcal/mol]     518.86742164 [kJ/mol]

  Special recipe for scaled SAPT0 (see Manual):
    Electrostatics sSAPT0         198.22398048 [mEh]     124.38742568 [kcal/mol]     520.43698905 [kJ/mol]
    Exchange sSAPT0                 0.00491697 [mEh]       0.00308545 [kcal/mol]       0.01290951 [kJ/mol]
    Induction sSAPT0               -0.50970436 [mEh]      -0.31984431 [kcal/mol]      -1.33822861 [kJ/mol]
    Dispersion sSAPT0              -0.00661942 [mEh]      -0.00415375 [kcal/mol]      -0.01737927 [kJ/mol]
  Total sSAPT0                    197.71257368 [mEh]     124.06651307 [kcal/mol]     519.09429068 [kJ/mol]
  --------------------------------------------------------------------------------------------------------

*** Psi4 exiting successfully. Buy a developer a beer!
