                               Psi4 1.9 release

  ==> Input File <==

--------------------------------------------------------------------------
MEMORY 60 GB

molecule dimer {
1 1
Li     0.000000     0.000000     0.000000
--
1 1
K      2.996000     0.000000     0.000000

units ang
no_reorient
no_com
symmetry c1
}

set {
basis        aug-cc-pVTZ
scf_type     df
}

energy("sapt2+")
--------------------------------------------------------------------------

  //              Dimer HF             //
    Molecular point group: c1
  Charge       = 2
  Multiplicity = 1
  Basis Set: AUG-CC-PVTZ
    Blend: AUG-CC-PVTZ
  Basis Set: (AUG-CC-PVTZ AUX)
    Blend: DEF2-UNIVERSAL-JKFIT
  @DF-RHF Final Energy:  -606.08006733904654
    Total Energy =                       -606.0800673390464226
 Dipole X            :       -101.7476485          107.5707700            5.8231215
 Dipole Y            :         -0.0000000            0.0000000           -0.0000000
 Dipole Z            :         -0.0000000            0.0000000           -0.0000000
 Magnitude           :                                                    5.8231215
  //            Monomer A HF           //
    Molecular point group: c1
  Multiplicity = 1
  Basis Set: AUG-CC-PVTZ
    Blend: AUG-CC-PVTZ
  Basis Set: (AUG-CC-PVTZ AUX)
    Blend: DEF2-UNIVERSAL-JKFIT
  @DF-RHF Final Energy:    -7.23638299443932
    Total Energy =                         -7.2363829944393183
  //            Monomer B HF           //
    Molecular point group: c1

    Geometry (in Angstrom), charge = 1, multiplicity = 1:

       Center              X                  Y                   Z               Mass
    ------------   -----------------  -----------------  -----------------  -----------------
      Gh(LI)          0.000000000000     0.000000000000     0.000000000000     7.016003436600
         K            2.996000000000     0.000000000000     0.000000000000    38.963706486400

  Charge       = 1
  Multiplicity = 1
  Basis Set: AUG-CC-PVTZ
    Blend: AUG-CC-PVTZ
  Basis Set: (AUG-CC-PVTZ AUX)
    Blend: DEF2-UNIVERSAL-JKFIT

    Orbital Energies [Eh]
    ---------------------

    Doubly Occupied:

       1A   -133.753722     2A    -14.709170     3A    -11.739241
       4A    -11.739238     5A    -11.739238     6A     -1.964324
       7A     -1.170972     8A     -1.170916     9A     -1.170916

  @DF-RHF Final Energy:  -599.01750878842472

   => Energetics <=

    Nuclear Repulsion Energy =              0.0000000000000000
    One-Electron Energy =                -819.7195438147105051
    Two-Electron Energy =                 220.7020350262857846
    Total Energy =                       -599.0175087884247205
 Dipole X            :       -101.9095052          107.5707700            5.6612648
 Dipole Y            :         -0.0000000            0.0000000           -0.0000000
 Dipole Z            :         -0.0000000            0.0000000           -0.0000000
 Magnitude           :                                                    5.6612648

    SAPT Results
  --------------------------------------------------------------------------------------------------------
    Electrostatics                176.86537655 [mEh]     110.98469937 [kcal/mol]     464.35998215 [kJ/mol]
      Elst10,r                    176.64811199 [mEh]     110.84836380 [kcal/mol]     463.78955413 [kJ/mol]
      Elst12,r                      0.21726456 [mEh]       0.13633557 [kcal/mol]       0.57042802 [kJ/mol]

    Exchange                        0.04104406 [mEh]       0.02575554 [kcal/mol]       0.10776117 [kJ/mol]
      Exch10                        0.04182040 [mEh]       0.02624270 [kcal/mol]       0.10979945 [kJ/mol]
      Exch10(S^2)                   0.04181985 [mEh]       0.02624235 [kcal/mol]       0.10979799 [kJ/mol]
      Exch11(S^2)                  -0.00028587 [mEh]      -0.00017938 [kcal/mol]      -0.00075054 [kJ/mol]
      Exch12(S^2)                  -0.00049047 [mEh]      -0.00030778 [kcal/mol]      -0.00128774 [kJ/mol]

    Induction                      -2.90634375 [mEh]      -1.82375823 [kcal/mol]      -7.63060445 [kJ/mol]
      Ind20,r                      -2.80743444 [mEh]      -1.76169171 [kcal/mol]      -7.37091812 [kJ/mol]
      Ind22                        -0.04128301 [mEh]      -0.02590548 [kcal/mol]      -0.10838853 [kJ/mol]
      Exch-Ind20,r                  0.02909492 [mEh]       0.01825734 [kcal/mol]       0.07638869 [kJ/mol]
      Exch-Ind22                    0.00042784 [mEh]       0.00026847 [kcal/mol]       0.00112329 [kJ/mol]
      delta HF,r (2)               -0.08714905 [mEh]      -0.05468685 [kcal/mol]      -0.22880979 [kJ/mol]

    Dispersion                     -0.03137176 [mEh]      -0.01968608 [kcal/mol]      -0.08236655 [kJ/mol]
      Disp20                       -0.03066027 [mEh]      -0.01923961 [kcal/mol]      -0.08049852 [kJ/mol]
      Disp21                        0.00051994 [mEh]       0.00032627 [kcal/mol]       0.00136511 [kJ/mol]
      Disp22 (SDQ)                 -0.00049139 [mEh]      -0.00030835 [kcal/mol]      -0.00129015 [kJ/mol]
      Disp22 (T)                   -0.00110854 [mEh]      -0.00069562 [kcal/mol]      -0.00291048 [kJ/mol]
      Est. Disp22 (T)              -0.00123726 [mEh]      -0.00077639 [kcal/mol]      -0.00324842 [kJ/mol]
      Exch-Disp20                   0.00049722 [mEh]       0.00031201 [kcal/mol]       0.00130544 [kJ/mol]

  Total HF                        173.82444382 [mEh]     109.07648527 [kcal/mol]     456.37601437 [kJ/mol]
  Total SAPT0                     173.79428077 [mEh]     109.05755767 [kcal/mol]     456.29682129 [kJ/mol]
  Total SAPT2                     173.96991381 [mEh]     109.16776907 [kcal/mol]     456.75794578 [kJ/mol]
  Total SAPT2+                    173.96870510 [mEh]     109.16701059 [kcal/mol]     456.75477232 [kJ/mol]

  Special recipe for scaled SAPT0 (see Manual):
    Electrostatics sSAPT0         176.64811199 [mEh]     110.84836380 [kcal/mol]     463.78955413 [kJ/mol]
    Exchange sSAPT0                 0.04182040 [mEh]       0.02624270 [kcal/mol]       0.10979945 [kJ/mol]
    Induction sSAPT0               -2.86548741 [mEh]      -1.79812050 [kcal/mol]      -7.52333617 [kJ/mol]
    Dispersion sSAPT0              -0.03016303 [mEh]      -0.01892759 [kcal/mol]      -0.07919303 [kJ/mol]
  Total sSAPT0                    173.79428195 [mEh]     109.05755841 [kcal/mol]     456.29682438 [kJ/mol]
  --------------------------------------------------------------------------------------------------------

*** Psi4 exiting successfully. Buy a developer a beer!
