                               Psi4 1.9 release

  ==> Input File <==

--------------------------------------------------------------------------
MEMORY 60 GB

molecule dimer {
1 1
Li     0.000000     0.000000     0.000000
--
1 1
K      2.782000     0.000000     0.000000

units ang
no_reorient
no_com
symmetry c1
}

set {
basis        aug-cc-pVTZ
scf_type     df
}

energy("sapt2+")
--------------------------------------------------------------------------

  //              Dimer HF             //
    Molecular point group: c1
  Charge       = 2
  Multiplicity = 1
  Basis Set: AUG-CC-PVTZ
    Blend: AUG-CC-PVTZ
  Basis Set: (AUG-CC-PVTZ AUX)
    Blend: DEF2-UNIVERSAL-JKFIT
  @DF-RHF Final Energy:  -606.06746210132110
    Total Energy =                       -606.0674621013210981
 Dipole X            :        -94.4408688           99.8871435            5.4462747
 Dipole Y            :         -0.0000000            0.0000000           -0.0000000
 Dipole Z            :         -0.0000000            0.0000000           -0.0000000
 Magnitude           :                                                    5.4462747
  //            Monomer A HF           //
    Molecular point group: c1
  Multiplicity = 1
  Basis Set: AUG-CC-PVTZ
    Blend: AUG-CC-PVTZ
  Basis Set: (AUG-CC-PVTZ AUX)
    Blend: DEF2-UNIVERSAL-JKFIT
  @DF-RHF Final Energy:    -7.23638298759136
    Total Energy =                         -7.2363829875913570
  //            Monomer B HF           //
    Molecular point group: c1

    Geometry (in Angstrom), charge = 1, multiplicity = 1:

       Center              X                  Y                   Z               Mass
    ------------   -----------------  -----------------  -----------------  -----------------
      Gh(LI)          0.000000000000     0.000000000000     0.000000000000     7.016003436600
         K            2.782000000000     0.000000000000     0.000000000000    38.963706486400

  Charge       = 1
  Multiplicity = 1
  Basis Set: AUG-CC-PVTZ
    Blend: AUG-CC-PVTZ
  Basis Set: (AUG-CC-PVTZ AUX)
    Blend: DEF2-UNIVERSAL-JKFIT

    Orbital Energies [Eh]
    ---------------------

    Doubly Occupied:

       1A   -133.753667     2A    -14.709126     3A    -11.739197
       4A    -11.739194     5A    -11.739194     6A     -1.964303
       7A     -1.170965     8A     -1.170898     9A     -1.170898

  @DF-RHF Final Energy:  -599.01750912837417

   => Energetics <=

    Nuclear Repulsion Energy =              0.0000000000000000
    One-Electron Energy =                -819.7201346734400431
    Two-Electron Energy =                 220.7026255450659562
    Total Energy =                       -599.0175091283740585
 Dipole X            :        -94.6303285           99.8871435            5.2568150
 Dipole Y            :          0.0000000            0.0000000            0.0000000
 Dipole Z            :         -0.0000000            0.0000000           -0.0000000
 Magnitude           :                                                    5.2568150

    SAPT Results
  --------------------------------------------------------------------------------------------------------
    Electrostatics                190.50274938 [mEh]     119.54228001 [kcal/mol]     500.16489958 [kJ/mol]
      Elst10,r                    190.24104943 [mEh]     119.37806082 [kcal/mol]     499.47780646 [kJ/mol]
      Elst12,r                      0.26169995 [mEh]       0.16421920 [kcal/mol]       0.68709312 [kJ/mol]

    Exchange                        0.13648139 [mEh]       0.08564336 [kcal/mol]       0.35833184 [kJ/mol]
      Exch10                        0.13332917 [mEh]       0.08366532 [kcal/mol]       0.35005568 [kJ/mol]
      Exch10(S^2)                   0.13332367 [mEh]       0.08366187 [kcal/mol]       0.35004126 [kJ/mol]
      Exch11(S^2)                  -0.00072120 [mEh]      -0.00045256 [kcal/mol]      -0.00189351 [kJ/mol]
      Exch12(S^2)                   0.00387342 [mEh]       0.00243061 [kcal/mol]       0.01016967 [kJ/mol]

    Induction                      -4.00013269 [mEh]      -2.51012116 [kcal/mol]     -10.50234692 [kJ/mol]
      Ind20,r                      -3.89440455 [mEh]      -2.44377575 [kcal/mol]     -10.22475773 [kJ/mol]
      Ind22                        -0.05705547 [mEh]      -0.03580285 [kcal/mol]      -0.14979912 [kJ/mol]
      Exch-Ind20,r                  0.08782775 [mEh]       0.05511275 [kcal/mol]       0.23059174 [kJ/mol]
      Exch-Ind22                    0.00128673 [mEh]       0.00080744 [kcal/mol]       0.00337831 [kJ/mol]
      delta HF,r (2)               -0.13778716 [mEh]      -0.08646275 [kcal/mol]      -0.36176013 [kJ/mol]

    Dispersion                     -0.05297971 [mEh]      -0.03324527 [kcal/mol]      -0.13909821 [kJ/mol]
      Disp20                       -0.05168921 [mEh]      -0.03243547 [kcal/mol]      -0.13571001 [kJ/mol]
      Disp21                        0.00044895 [mEh]       0.00028172 [kcal/mol]       0.00117871 [kJ/mol]
      Disp22 (SDQ)                 -0.00085223 [mEh]      -0.00053478 [kcal/mol]      -0.00223752 [kJ/mol]
      Disp22 (T)                   -0.00186831 [mEh]      -0.00117238 [kcal/mol]      -0.00490526 [kJ/mol]
      Est. Disp22 (T)              -0.00211486 [mEh]      -0.00132709 [kcal/mol]      -0.00555256 [kJ/mol]
      Exch-Disp20                   0.00122764 [mEh]       0.00077036 [kcal/mol]       0.00322317 [kJ/mol]

  Total HF                        186.43001464 [mEh]     116.98660039 [kcal/mol]     489.47193601 [kJ/mol]
  Total SAPT0                     186.37955307 [mEh]     116.95493527 [kcal/mol]     489.33944917 [kJ/mol]
  Total SAPT2                     186.58863650 [mEh]     117.08613711 [kcal/mol]     489.88839765 [kJ/mol]
  Total SAPT2+                    186.58611837 [mEh]     117.08455695 [kcal/mol]     489.88178628 [kJ/mol]

  Special recipe for scaled SAPT0 (see Manual):
    Electrostatics sSAPT0         190.24104943 [mEh]     119.37806082 [kcal/mol]     499.47780646 [kJ/mol]
    Exchange sSAPT0                 0.13332917 [mEh]       0.08366532 [kcal/mol]       0.35005568 [kJ/mol]
    Induction sSAPT0               -3.94435309 [mEh]      -2.47511893 [kcal/mol]     -10.35589762 [kJ/mol]
    Dispersion sSAPT0              -0.05046142 [mEh]      -0.03166502 [kcal/mol]      -0.13248644 [kJ/mol]
  Total sSAPT0                    186.37956408 [mEh]     116.95494218 [kcal/mol]     489.33947807 [kJ/mol]
  --------------------------------------------------------------------------------------------------------

*** Psi4 exiting successfully. Buy a developer a beer!
