                               Psi4 1.9 release

  ==> Input File <==

--------------------------------------------------------------------------
MEMORY 60 GB

molecule dimer {
1 1
Li     0.000000     0.000000     0.000000
--
1 1
K      2.568000     0.000000     0.000000

units ang
no_reorient
no_com
symmetry c1
}

set {
basis        aug-cc-pVTZ
scf_type     df
}

energy("sapt2+")
--------------------------------------------------------------------------

  //              Dimer HF             //
    Molecular point group: c1
  Charge       = 2
  Multiplicity = 1
  Basis Set: AUG-CC-PVTZ
    Blend: AUG-CC-PVTZ
  Basis Set: (AUG-CC-PVTZ AUX)
    Blend: DEF2-UNIVERSAL-JKFIT
  @DF-RHF Final Energy:  -606.05288671165408
    Total Energy =                       -606.0528867116540823
 Dipole X            :        -87.1286079           92.2035171            5.0749092
 Dipole Y            :         -0.0000000            0.0000000           -0.0000000
 Dipole Z            :          0.0000000            0.0000000            0.0000000
 Magnitude           :                                                    5.0749092
  //            Monomer A HF           //
    Molecular point group: c1
  Multiplicity = 1
  Basis Set: AUG-CC-PVTZ
    Blend: AUG-CC-PVTZ
  Basis Set: (AUG-CC-PVTZ AUX)
    Blend: DEF2-UNIVERSAL-JKFIT
  @DF-RHF Final Energy:    -7.23638299268751
    Total Energy =                         -7.2363829926875134
  //            Monomer B HF           //
    Molecular point group: c1

    Geometry (in Angstrom), charge = 1, multiplicity = 1:

       Center              X                  Y                   Z               Mass
    ------------   -----------------  -----------------  -----------------  -----------------
      Gh(LI)          0.000000000000     0.000000000000     0.000000000000     7.016003436600
         K            2.568000000000     0.000000000000     0.000000000000    38.963706486400

  Charge       = 1
  Multiplicity = 1
  Basis Set: AUG-CC-PVTZ
    Blend: AUG-CC-PVTZ
  Basis Set: (AUG-CC-PVTZ AUX)
    Blend: DEF2-UNIVERSAL-JKFIT

    Orbital Energies [Eh]
    ---------------------

    Doubly Occupied:

       1A   -133.753564     2A    -14.709045     3A    -11.739116
       4A    -11.739113     5A    -11.739113     6A     -1.964269
       7A     -1.170941     8A     -1.170870     9A     -1.170870

  @DF-RHF Final Energy:  -599.01750958348396

   => Energetics <=

    Nuclear Repulsion Energy =              0.0000000000000000
    One-Electron Energy =                -819.7212165614143942
    Two-Electron Energy =                 220.7037069779303806
    Total Energy =                       -599.0175095834840704
 Dipole X            :        -87.3511628           92.2035171            4.8523543
 Dipole Y            :         -0.0000000            0.0000000           -0.0000000
 Dipole Z            :          0.0000000            0.0000000            0.0000000
 Magnitude           :                                                    4.8523543

    SAPT Results
  --------------------------------------------------------------------------------------------------------
    Electrostatics                206.41942996 [mEh]     129.53014787 [kcal/mol]     541.95413869 [kJ/mol]
      Elst10,r                    206.09280650 [mEh]     129.32518855 [kcal/mol]     541.09658891 [kJ/mol]
      Elst12,r                      0.32662346 [mEh]       0.20495932 [kcal/mol]       0.85754978 [kJ/mol]

    Exchange                        0.43772827 [mEh]       0.27467864 [kcal/mol]       1.14925542 [kJ/mol]
      Exch10                        0.42188049 [mEh]       0.26473401 [kcal/mol]       1.10764708 [kJ/mol]
      Exch10(S^2)                   0.42182718 [mEh]       0.26470055 [kcal/mol]       1.10750710 [kJ/mol]
      Exch11(S^2)                  -0.00205195 [mEh]      -0.00128762 [kcal/mol]      -0.00538740 [kJ/mol]
      Exch12(S^2)                   0.01789973 [mEh]       0.01123225 [kcal/mol]       0.04699574 [kJ/mol]

    Induction                      -5.59056376 [mEh]      -3.50813172 [kcal/mol]     -14.67802312 [kJ/mol]
      Ind20,r                      -5.57128201 [mEh]      -3.49603224 [kcal/mol]     -14.62739890 [kJ/mol]
      Ind22                        -0.08578987 [mEh]      -0.05383395 [kcal/mol]      -0.22524127 [kJ/mol]
      Exch-Ind20,r                  0.26291919 [mEh]       0.16498428 [kcal/mol]       0.69029424 [kJ/mol]
      Exch-Ind22                    0.00404858 [mEh]       0.00254052 [kcal/mol]       0.01062956 [kJ/mol]
      delta HF,r (2)               -0.20045965 [mEh]      -0.12579033 [kcal/mol]      -0.52630675 [kJ/mol]

    Dispersion                     -0.09197715 [mEh]      -0.05771653 [kcal/mol]      -0.24148597 [kJ/mol]
      Disp20                       -0.08978868 [mEh]      -0.05634325 [kcal/mol]      -0.23574014 [kJ/mol]
      Disp21                        0.00010474 [mEh]       0.00006573 [kcal/mol]       0.00027499 [kJ/mol]
      Disp22 (SDQ)                 -0.00146935 [mEh]      -0.00092203 [kcal/mol]      -0.00385778 [kJ/mol]
      Disp22 (T)                   -0.00322947 [mEh]      -0.00202652 [kcal/mol]      -0.00847898 [kJ/mol]
      Est. Disp22 (T)              -0.00371322 [mEh]      -0.00233008 [kcal/mol]      -0.00974906 [kJ/mol]
      Exch-Disp20                   0.00288936 [mEh]       0.00181310 [kcal/mol]       0.00758602 [kJ/mol]

  Total HF                        201.00586452 [mEh]     126.13308427 [kcal/mol]     527.74082458 [kJ/mol]
  Total SAPT0                     200.91896520 [mEh]     126.07855413 [kcal/mol]     527.51267046 [kJ/mol]
  Total SAPT2                     201.17969516 [mEh]     126.24216464 [kcal/mol]     528.19721686 [kJ/mol]
  Total SAPT2+                    201.17461732 [mEh]     126.23897825 [kcal/mol]     528.18388502 [kJ/mol]

  Special recipe for scaled SAPT0 (see Manual):
    Electrostatics sSAPT0         206.09280650 [mEh]     129.32518855 [kcal/mol]     541.09658891 [kJ/mol]
    Exchange sSAPT0                 0.42188049 [mEh]       0.26473401 [kcal/mol]       1.10764708 [kJ/mol]
    Induction sSAPT0               -5.50872277 [mEh]      -3.45677572 [kcal/mol]     -14.46314963 [kJ/mol]
    Dispersion sSAPT0              -0.08689822 [mEh]      -0.05452946 [kcal/mol]      -0.22815124 [kJ/mol]
  Total sSAPT0                    200.91906600 [mEh]     126.07861738 [kcal/mol]     527.51293512 [kJ/mol]
  --------------------------------------------------------------------------------------------------------

*** Psi4 exiting successfully. Buy a developer a beer!
