                               Psi4 1.9 release

  ==> Input File <==

--------------------------------------------------------------------------
MEMORY 60 GB

molecule dimer {
1 1
Li     0.000000     0.000000     0.000000
--
1 1
K      4.280000     0.000000     0.000000

units ang
no_reorient
no_com
symmetry c1
}

set {
basis        aug-cc-pVTZ
scf_type     df
}

energy("sapt2+")
--------------------------------------------------------------------------

  //              Dimer HF             //
    Molecular point group: c1
  Charge       = 2
  Multiplicity = 1
  Basis Set: AUG-CC-PVTZ
    Blend: AUG-CC-PVTZ
  Basis Set: (AUG-CC-PVTZ AUX)
    Blend: DEF2-UNIVERSAL-JKFIT
  @DF-RHF Final Energy:  -606.13087109517846
    Total Energy =                       -606.1308710951785770
 Dipole X            :       -145.5095734          153.6725285            8.1629551
 Dipole Y            :          0.0000000            0.0000000            0.0000000
 Dipole Z            :          0.0000000            0.0000000            0.0000000
 Magnitude           :                                                    8.1629551
  //            Monomer A HF           //
    Molecular point group: c1
  Multiplicity = 1
  Basis Set: AUG-CC-PVTZ
    Blend: AUG-CC-PVTZ
  Basis Set: (AUG-CC-PVTZ AUX)
    Blend: DEF2-UNIVERSAL-JKFIT
  @DF-RHF Final Energy:    -7.23638284266655
    Total Energy =                         -7.2363828426665524
  //            Monomer B HF           //
    Molecular point group: c1

    Geometry (in Angstrom), charge = 1, multiplicity = 1:

       Center              X                  Y                   Z               Mass
    ------------   -----------------  -----------------  -----------------  -----------------
      Gh(LI)          0.000000000000     0.000000000000     0.000000000000     7.016003436600
         K            4.280000000000     0.000000000000     0.000000000000    38.963706486400

  Charge       = 1
  Multiplicity = 1
  Basis Set: AUG-CC-PVTZ
    Blend: AUG-CC-PVTZ
  Basis Set: (AUG-CC-PVTZ AUX)
    Blend: DEF2-UNIVERSAL-JKFIT

    Orbital Energies [Eh]
    ---------------------

    Doubly Occupied:

       1A   -133.753814     2A    -14.709252     3A    -11.739317
       4A    -11.739313     5A    -11.739313     6A     -1.964384
       7A     -1.170985     8A     -1.170952     9A     -1.170952

  @DF-RHF Final Energy:  -599.01750722081670

   => Energetics <=

    Nuclear Repulsion Energy =              0.0000000000000000
    One-Electron Energy =                -819.7184523304275672
    Two-Electron Energy =                 220.7009451096108421
    Total Energy =                       -599.0175072208166966
 Dipole X            :       -145.5848337          153.6725285            8.0876949
 Dipole Y            :          0.0000000            0.0000000            0.0000000
 Dipole Z            :          0.0000000            0.0000000            0.0000000
 Magnitude           :                                                    8.0876949

    SAPT Results
  --------------------------------------------------------------------------------------------------------
    Electrostatics                123.73825872 [mEh]      77.64692962 [kcal/mol]     324.87475351 [kJ/mol]
      Elst10,r                    123.64623547 [mEh]      77.58918416 [kcal/mol]     324.63314651 [kJ/mol]
      Elst12,r                      0.09202325 [mEh]       0.05774546 [kcal/mol]       0.24160700 [kJ/mol]

    Exchange                       -0.00104047 [mEh]      -0.00065291 [kcal/mol]      -0.00273176 [kJ/mol]
      Exch10                        0.00003989 [mEh]       0.00002503 [kcal/mol]       0.00010474 [kJ/mol]
      Exch10(S^2)                   0.00003989 [mEh]       0.00002503 [kcal/mol]       0.00010474 [kJ/mol]
      Exch11(S^2)                  -0.00000085 [mEh]      -0.00000054 [kcal/mol]      -0.00000224 [kJ/mol]
      Exch12(S^2)                  -0.00107951 [mEh]      -0.00067740 [kcal/mol]      -0.00283425 [kJ/mol]

    Induction                      -0.63768553 [mEh]      -0.40015371 [kcal/mol]      -1.67424312 [kJ/mol]
      Ind20,r                      -0.62211946 [mEh]      -0.39038586 [kcal/mol]      -1.63337443 [kJ/mol]
      Ind22                        -0.01037894 [mEh]      -0.00651288 [kcal/mol]      -0.02724990 [kJ/mol]
      Exch-Ind20,r                  0.00002842 [mEh]       0.00001784 [kcal/mol]       0.00007463 [kJ/mol]
      Exch-Ind22                    0.00000047 [mEh]       0.00000030 [kcal/mol]       0.00000125 [kJ/mol]
      delta HF,r (2)               -0.00521602 [mEh]      -0.00327310 [kcal/mol]      -0.01369466 [kJ/mol]

    Dispersion                     -0.00300088 [mEh]      -0.00188308 [kcal/mol]      -0.00787880 [kJ/mol]
      Disp20                       -0.00299187 [mEh]      -0.00187743 [kcal/mol]      -0.00785515 [kJ/mol]
      Disp21                        0.00014449 [mEh]       0.00009067 [kcal/mol]       0.00037935 [kJ/mol]
      Disp22 (SDQ)                 -0.00002946 [mEh]      -0.00001849 [kcal/mol]      -0.00007735 [kJ/mol]
      Disp22 (T)                   -0.00011756 [mEh]      -0.00007377 [kcal/mol]      -0.00030866 [kJ/mol]
      Est. Disp22 (T)              -0.00012436 [mEh]      -0.00007804 [kcal/mol]      -0.00032651 [kJ/mol]
      Exch-Disp20                   0.00000033 [mEh]       0.00000021 [kcal/mol]       0.00000086 [kJ/mol]

  Total HF                        123.01896830 [mEh]      77.19556807 [kcal/mol]     322.98625679 [kJ/mol]
  Total SAPT0                     123.01597676 [mEh]      77.19369084 [kcal/mol]     322.97840250 [kJ/mol]
  Total SAPT2                     123.09654118 [mEh]      77.24424578 [kcal/mol]     323.18992435 [kJ/mol]
  Total SAPT2+                    123.09653185 [mEh]      77.24423992 [kcal/mol]     323.18989983 [kJ/mol]

  Special recipe for scaled SAPT0 (see Manual):
    Electrostatics sSAPT0         123.64623547 [mEh]      77.58918416 [kcal/mol]     324.63314651 [kJ/mol]
    Exchange sSAPT0                 0.00003989 [mEh]       0.00002503 [kcal/mol]       0.00010474 [kJ/mol]
    Induction sSAPT0               -0.62730706 [mEh]      -0.39364112 [kcal/mol]      -1.64699446 [kJ/mol]
    Dispersion sSAPT0              -0.00299154 [mEh]      -0.00187722 [kcal/mol]      -0.00785429 [kJ/mol]
  Total sSAPT0                    123.01597676 [mEh]      77.19369084 [kcal/mol]     322.97840250 [kJ/mol]
  --------------------------------------------------------------------------------------------------------

*** Psi4 exiting successfully. Buy a developer a beer!
