                               Psi4 1.9 release

  ==> Input File <==

--------------------------------------------------------------------------
MEMORY 60 GB

molecule dimer {
1 1
Li     0.000000     0.000000     0.000000
--
1 1
K      2.140000     0.000000     0.000000

units ang
no_reorient
no_com
symmetry c1
}

set {
basis        aug-cc-pVTZ
scf_type     df
}

energy("sapt2+")
--------------------------------------------------------------------------

  //              Dimer HF             //
    Molecular point group: c1
  Charge       = 2
  Multiplicity = 1
  Basis Set: AUG-CC-PVTZ
    Blend: AUG-CC-PVTZ
  Basis Set: (AUG-CC-PVTZ AUX)
    Blend: DEF2-UNIVERSAL-JKFIT
  @DF-RHF Final Energy:  -606.01354845602975
    Total Energy =                       -606.0135484560296391
 Dipole X            :        -72.4913451           76.8362643            4.3449191
 Dipole Y            :         -0.0000000            0.0000000           -0.0000000
 Dipole Z            :          0.0000000            0.0000000            0.0000000
 Magnitude           :                                                    4.3449191
  //            Monomer A HF           //
    Molecular point group: c1
  Multiplicity = 1
  Basis Set: AUG-CC-PVTZ
    Blend: AUG-CC-PVTZ
  Basis Set: (AUG-CC-PVTZ AUX)
    Blend: DEF2-UNIVERSAL-JKFIT
  @DF-RHF Final Energy:    -7.23638298932709
    Total Energy =                         -7.2363829893270930
  //            Monomer B HF           //
    Molecular point group: c1

    Geometry (in Angstrom), charge = 1, multiplicity = 1:

       Center              X                  Y                   Z               Mass
    ------------   -----------------  -----------------  -----------------  -----------------
      Gh(LI)          0.000000000000     0.000000000000     0.000000000000     7.016003436600
         K            2.140000000000     0.000000000000     0.000000000000    38.963706486400

  Charge       = 1
  Multiplicity = 1
  Basis Set: AUG-CC-PVTZ
    Blend: AUG-CC-PVTZ
  Basis Set: (AUG-CC-PVTZ AUX)
    Blend: DEF2-UNIVERSAL-JKFIT

    Orbital Energies [Eh]
    ---------------------

    Doubly Occupied:

       1A   -133.753170     2A    -14.708741     3A    -11.738809
       4A    -11.738805     5A    -11.738805     6A     -1.964143
       7A     -1.170818     8A     -1.170784     9A     -1.170784

  @DF-RHF Final Energy:  -599.01751117329195

   => Energetics <=

    Nuclear Repulsion Energy =              0.0000000000000000
    One-Electron Energy =                -819.7253061327359092
    Two-Electron Energy =                 220.7077949594439872
    Total Energy =                       -599.0175111732919504
 Dipole X            :        -72.7928196           76.8362643            4.0434446
 Dipole Y            :         -0.0000000            0.0000000           -0.0000000
 Dipole Z            :          0.0000000            0.0000000            0.0000000
 Magnitude           :                                                    4.0434446

    SAPT Results
  --------------------------------------------------------------------------------------------------------
    Electrostatics                247.67235752 [mEh]     155.41675074 [kcal/mol]     650.26368508 [kJ/mol]
      Elst10,r                    247.17996063 [mEh]     155.10776702 [kcal/mol]     648.97089723 [kJ/mol]
      Elst12,r                      0.49239689 [mEh]       0.30898371 [kcal/mol]       1.29278785 [kJ/mol]

    Exchange                        4.23696275 [mEh]       2.65873427 [kcal/mol]      11.12414417 [kJ/mol]
      Exch10                        4.08826229 [mEh]       2.56542332 [kcal/mol]      10.73373116 [kJ/mol]
      Exch10(S^2)                   4.08361792 [mEh]       2.56250893 [kcal/mol]      10.72153737 [kJ/mol]
      Exch11(S^2)                  -0.02470350 [mEh]      -0.01550168 [kcal/mol]      -0.06485903 [kJ/mol]
      Exch12(S^2)                   0.17340396 [mEh]       0.10881263 [kcal/mol]       0.45527204 [kJ/mol]

    Induction                     -11.13796802 [mEh]      -6.98918045 [kcal/mol]     -29.24273100 [kJ/mol]
      Ind20,r                     -12.91907415 [mEh]      -8.10684142 [kcal/mol]     -33.91902451 [kJ/mol]
      Ind22                        -0.26130970 [mEh]      -0.16397431 [kcal/mol]      -0.68606852 [kJ/mol]
      Exch-Ind20,r                  2.26720648 [mEh]       1.42269355 [kcal/mol]       5.95254981 [kJ/mol]
      Exch-Ind22                    0.04585801 [mEh]       0.02877634 [kcal/mol]       0.12040019 [kJ/mol]
      delta HF,r (2)               -0.27064866 [mEh]      -0.16983460 [kcal/mol]      -0.71058797 [kJ/mol]

    Dispersion                     -0.29605128 [mEh]      -0.18577498 [kcal/mol]      -0.77728252 [kJ/mol]
      Disp20                       -0.29051822 [mEh]      -0.18230294 [kcal/mol]      -0.76275549 [kJ/mol]
      Disp21                       -0.00300904 [mEh]      -0.00188820 [kcal/mol]      -0.00790024 [kJ/mol]
      Disp22 (SDQ)                 -0.00428979 [mEh]      -0.00269189 [kcal/mol]      -0.01126285 [kJ/mol]
      Disp22 (T)                   -0.01040337 [mEh]      -0.00652821 [kcal/mol]      -0.02731404 [kJ/mol]
      Est. Disp22 (T)              -0.01208524 [mEh]      -0.00758360 [kcal/mol]      -0.03172980 [kJ/mol]
      Exch-Disp20                   0.01385103 [mEh]       0.00869165 [kcal/mol]       0.03636586 [kJ/mol]

  Total HF                        240.34570659 [mEh]     150.81920787 [kcal/mol]     631.02756571 [kJ/mol]
  Total SAPT0                     240.06903939 [mEh]     150.64559658 [kcal/mol]     630.30117609 [kJ/mol]
  Total SAPT2                     240.49468505 [mEh]     150.91269326 [kcal/mol]     631.41870862 [kJ/mol]
  Total SAPT2+                    240.47530097 [mEh]     150.90052957 [kcal/mol]     631.36781573 [kJ/mol]

  Special recipe for scaled SAPT0 (see Manual):
    Electrostatics sSAPT0         247.17996063 [mEh]     155.10776702 [kcal/mol]     648.97089723 [kJ/mol]
    Exchange sSAPT0                 4.08826229 [mEh]       2.56542332 [kcal/mol]      10.73373116 [kJ/mol]
    Induction sSAPT0              -10.91477193 [mEh]      -6.84912279 [kcal/mol]     -28.65672976 [kJ/mol]
    Dispersion sSAPT0              -0.27661988 [mEh]      -0.17358160 [kcal/mol]      -0.72626541 [kJ/mol]
  Total sSAPT0                    240.07683110 [mEh]     150.65048595 [kcal/mol]     630.32163322 [kJ/mol]
  --------------------------------------------------------------------------------------------------------

*** Psi4 exiting successfully. Buy a developer a beer!
