                               Psi4 1.9 release

  ==> Input File <==

--------------------------------------------------------------------------
MEMORY 60 GB

molecule dimer {
1 1
Li     0.000000     0.000000     0.000000
--
1 1
K      3.210000     0.000000     0.000000

units ang
no_reorient
no_com
symmetry c1
}

set {
basis        aug-cc-pVTZ
scf_type     df
}

energy("sapt2+")
--------------------------------------------------------------------------

  //              Dimer HF             //
    Molecular point group: c1
  Charge       = 2
  Multiplicity = 1
  Basis Set: AUG-CC-PVTZ
    Blend: AUG-CC-PVTZ
  Basis Set: (AUG-CC-PVTZ AUX)
    Blend: DEF2-UNIVERSAL-JKFIT
  @DF-RHF Final Energy:  -606.09113071611023
    Total Energy =                       -606.0911307161102286
 Dipole X            :       -109.0495564          115.2543964            6.2048399
 Dipole Y            :          0.0000000            0.0000000            0.0000000
 Dipole Z            :          0.0000000            0.0000000            0.0000000
 Magnitude           :                                                    6.2048399
  //            Monomer A HF           //
    Molecular point group: c1
  Multiplicity = 1
  Basis Set: AUG-CC-PVTZ
    Blend: AUG-CC-PVTZ
  Basis Set: (AUG-CC-PVTZ AUX)
    Blend: DEF2-UNIVERSAL-JKFIT
  @DF-RHF Final Energy:    -7.23638301109859
    Total Energy =                         -7.2363830110985852
  //            Monomer B HF           //
    Molecular point group: c1

    Geometry (in Angstrom), charge = 1, multiplicity = 1:

       Center              X                  Y                   Z               Mass
    ------------   -----------------  -----------------  -----------------  -----------------
      Gh(LI)          0.000000000000     0.000000000000     0.000000000000     7.016003436600
         K            3.210000000000     0.000000000000     0.000000000000    38.963706486400

  Charge       = 1
  Multiplicity = 1
  Basis Set: AUG-CC-PVTZ
    Blend: AUG-CC-PVTZ
  Basis Set: (AUG-CC-PVTZ AUX)
    Blend: DEF2-UNIVERSAL-JKFIT

    Orbital Energies [Eh]
    ---------------------

    Doubly Occupied:

       1A   -133.753761     2A    -14.709203     3A    -11.739274
       4A    -11.739270     5A    -11.739270     6A     -1.964342
       7A     -1.170975     8A     -1.170931     9A     -1.170931

  @DF-RHF Final Energy:  -599.01750842109755

   => Energetics <=

    Nuclear Repulsion Energy =              0.0000000000000000
    One-Electron Energy =                -819.7191075196493557
    Two-Electron Energy =                 220.7015990985518954
    Total Energy =                       -599.0175084210974319
 Dipole X            :       -109.1886821          115.2543964            6.0657143
 Dipole Y            :          0.0000000            0.0000000            0.0000000
 Dipole Z            :          0.0000000            0.0000000            0.0000000
 Magnitude           :                                                    6.0657143

    SAPT Results
  --------------------------------------------------------------------------------------------------------
    Electrostatics                165.05600306 [mEh]     103.57420563 [kcal/mol]     433.35447634 [kJ/mol]
      Elst10,r                    164.86705349 [mEh]     103.45563798 [kcal/mol]     432.85838929 [kJ/mol]
      Elst12,r                      0.18894958 [mEh]       0.11856765 [kcal/mol]       0.49608705 [kJ/mol]

    Exchange                        0.01127890 [mEh]       0.00707761 [kcal/mol]       0.02961274 [kJ/mol]
      Exch10                        0.01304565 [mEh]       0.00818627 [kcal/mol]       0.03425135 [kJ/mol]
      Exch10(S^2)                   0.01304559 [mEh]       0.00818623 [kcal/mol]       0.03425120 [kJ/mol]
      Exch11(S^2)                  -0.00012112 [mEh]      -0.00007601 [kcal/mol]      -0.00031801 [kJ/mol]
      Exch12(S^2)                  -0.00164563 [mEh]      -0.00103265 [kcal/mol]      -0.00432060 [kJ/mol]

    Induction                      -2.15034998 [mEh]      -1.34936498 [kcal/mol]      -5.64574310 [kJ/mol]
      Ind20,r                      -2.07590695 [mEh]      -1.30265128 [kcal/mol]      -5.45029294 [kJ/mol]
      Ind22                        -0.03110978 [mEh]      -0.01952168 [kcal/mol]      -0.08167871 [kJ/mol]
      Exch-Ind20,r                  0.00953198 [mEh]       0.00598141 [kcal/mol]       0.02502621 [kJ/mol]
      Exch-Ind22                    0.00014285 [mEh]       0.00008964 [kcal/mol]       0.00037505 [kJ/mol]
      delta HF,r (2)               -0.05300808 [mEh]      -0.03326307 [kcal/mol]      -0.13917270 [kJ/mol]

    Dispersion                     -0.01929158 [mEh]      -0.01210565 [kcal/mol]      -0.05065004 [kJ/mol]
      Disp20                       -0.01892514 [mEh]      -0.01187570 [kcal/mol]      -0.04968794 [kJ/mol]
      Disp21                        0.00048121 [mEh]       0.00030196 [kcal/mol]       0.00126342 [kJ/mol]
      Disp22 (SDQ)                 -0.00028577 [mEh]      -0.00017932 [kcal/mol]      -0.00075028 [kJ/mol]
      Disp22 (T)                   -0.00068347 [mEh]      -0.00042888 [kcal/mol]      -0.00179445 [kJ/mol]
      Est. Disp22 (T)              -0.00075389 [mEh]      -0.00047307 [kcal/mol]      -0.00197933 [kJ/mol]
      Exch-Disp20                   0.00019200 [mEh]       0.00012048 [kcal/mol]       0.00050409 [kJ/mol]

  Total HF                        162.76071609 [mEh]     102.13389130 [kcal/mol]     427.32820121 [kJ/mol]
  Total SAPT0                     162.74198295 [mEh]     102.12213608 [kcal/mol]     427.27901736 [kJ/mol]
  Total SAPT2                     162.89819884 [mEh]     102.22016303 [kcal/mol]     427.68916214 [kJ/mol]
  Total SAPT2+                    162.89764040 [mEh]     102.21981261 [kcal/mol]     427.68769594 [kJ/mol]

  Special recipe for scaled SAPT0 (see Manual):
    Electrostatics sSAPT0         164.86705349 [mEh]     103.45563798 [kcal/mol]     432.85838929 [kJ/mol]
    Exchange sSAPT0                 0.01304565 [mEh]       0.00818627 [kcal/mol]       0.03425135 [kJ/mol]
    Induction sSAPT0               -2.11938293 [mEh]      -1.32993287 [kcal/mol]      -5.56443911 [kJ/mol]
    Dispersion sSAPT0              -0.01873314 [mEh]      -0.01175522 [kcal/mol]      -0.04918384 [kJ/mol]
  Total sSAPT0                    162.74198307 [mEh]     102.12213616 [kcal/mol]     427.27901769 [kJ/mol]
  --------------------------------------------------------------------------------------------------------

*** Psi4 exiting successfully. Buy a developer a beer!
