                               Psi4 1.9 release

  ==> Input File <==

--------------------------------------------------------------------------
MEMORY 60 GB

molecule dimer {
1 1
Li     0.000000     0.000000     0.000000
--
1 1
K      2.354000     0.000000     0.000000

units ang
no_reorient
no_com
symmetry c1
}

set {
basis        aug-cc-pVTZ
scf_type     df
}

energy("sapt2+")
--------------------------------------------------------------------------

  //              Dimer HF             //
    Molecular point group: c1
  Charge       = 2
  Multiplicity = 1
  Basis Set: AUG-CC-PVTZ
    Blend: AUG-CC-PVTZ
  Basis Set: (AUG-CC-PVTZ AUX)
    Blend: DEF2-UNIVERSAL-JKFIT
  @DF-RHF Final Energy:  -606.03552490707614
    Total Energy =                       -606.0355249070761374
 Dipole X            :        -79.8113015           84.5198907            4.7085892
 Dipole Y            :          0.0000000            0.0000000            0.0000000
 Dipole Z            :          0.0000000            0.0000000            0.0000000
 Magnitude           :                                                    4.7085892
  //            Monomer A HF           //
    Molecular point group: c1
  Multiplicity = 1
  Basis Set: AUG-CC-PVTZ
    Blend: AUG-CC-PVTZ
  Basis Set: (AUG-CC-PVTZ AUX)
    Blend: DEF2-UNIVERSAL-JKFIT
  @DF-RHF Final Energy:    -7.23638300155119
    Total Energy =                         -7.2363830015511947
  //            Monomer B HF           //
    Molecular point group: c1

    Geometry (in Angstrom), charge = 1, multiplicity = 1:

       Center              X                  Y                   Z               Mass
    ------------   -----------------  -----------------  -----------------  -----------------
      Gh(LI)          0.000000000000     0.000000000000     0.000000000000     7.016003436600
         K            2.354000000000     0.000000000000     0.000000000000    38.963706486400

  Charge       = 1
  Multiplicity = 1
  Basis Set: AUG-CC-PVTZ
    Blend: AUG-CC-PVTZ
  Basis Set: (AUG-CC-PVTZ AUX)
    Blend: DEF2-UNIVERSAL-JKFIT

    Orbital Energies [Eh]
    ---------------------

    Doubly Occupied:

       1A   -133.753386     2A    -14.708908     3A    -11.738977
       4A    -11.738974     5A    -11.738974     6A     -1.964212
       7A     -1.170889     8A     -1.170830     9A     -1.170830

  @DF-RHF Final Energy:  -599.01751029334787

   => Energetics <=

    Nuclear Repulsion Energy =              0.0000000000000000
    One-Electron Energy =                -819.7230600939302576
    Two-Electron Energy =                 220.7055498005824745
    Total Energy =                       -599.0175102933477547
 Dipole X            :        -80.0720028           84.5198907            4.4478879
 Dipole Y            :          0.0000000            0.0000000            0.0000000
 Dipole Z            :          0.0000000            0.0000000            0.0000000
 Magnitude           :                                                    4.4478879

    SAPT Results
  --------------------------------------------------------------------------------------------------------
    Electrostatics                225.20522045 [mEh]     141.31840938 [kcal/mol]     591.27622484 [kJ/mol]
      Elst10,r                    224.80208963 [mEh]     141.06544097 [kcal/mol]     590.21780502 [kJ/mol]
      Elst12,r                      0.40313082 [mEh]       0.25296841 [kcal/mol]       1.05841982 [kJ/mol]

    Exchange                        1.37438558 [mEh]       0.86243997 [kcal/mol]       3.60844885 [kJ/mol]
      Exch10                        1.32185572 [mEh]       0.82947699 [kcal/mol]       3.47053172 [kJ/mol]
      Exch10(S^2)                   1.32135030 [mEh]       0.82915983 [kcal/mol]       3.46920472 [kJ/mol]
      Exch11(S^2)                  -0.00674433 [mEh]      -0.00423213 [kcal/mol]      -0.01770724 [kJ/mol]
      Exch12(S^2)                   0.05927419 [mEh]       0.03719512 [kcal/mol]       0.15562437 [kJ/mol]

    Induction                      -7.88557476 [mEh]      -4.94827287 [kcal/mol]     -20.70357369 [kJ/mol]
      Ind20,r                      -8.28106684 [mEh]      -5.19644789 [kcal/mol]     -21.74193798 [kJ/mol]
      Ind22                        -0.14350754 [mEh]      -0.09005234 [kcal/mol]      -0.37677898 [kJ/mol]
      Exch-Ind20,r                  0.77845469 [mEh]       0.48848769 [kcal/mol]       2.04383250 [kJ/mol]
      Exch-Ind22                    0.01349030 [mEh]       0.00846529 [kcal/mol]       0.03541879 [kJ/mol]
      delta HF,r (2)               -0.25294539 [mEh]      -0.15872563 [kcal/mol]      -0.66410802 [kJ/mol]

    Dispersion                     -0.16325091 [mEh]      -0.10244149 [kcal/mol]      -0.42861520 [kJ/mol]
      Disp20                       -0.15975047 [mEh]      -0.10024493 [kcal/mol]      -0.41942481 [kJ/mol]
      Disp21                       -0.00084495 [mEh]      -0.00053021 [kcal/mol]      -0.00221841 [kJ/mol]
      Disp22 (SDQ)                 -0.00251621 [mEh]      -0.00157894 [kcal/mol]      -0.00660630 [kJ/mol]
      Disp22 (T)                   -0.00569131 [mEh]      -0.00357135 [kcal/mol]      -0.01494252 [kJ/mol]
      Est. Disp22 (T)              -0.00664171 [mEh]      -0.00416774 [kcal/mol]      -0.01743781 [kJ/mol]
      Exch-Disp20                   0.00650243 [mEh]       0.00408034 [kcal/mol]       0.01707212 [kJ/mol]

  Total HF                        218.36838782 [mEh]     137.02823213 [kcal/mol]     573.32612324 [kJ/mol]
  Total SAPT0                     218.21513978 [mEh]     136.93206753 [kcal/mol]     572.92377056 [kJ/mol]
  Total SAPT2                     218.54078323 [mEh]     137.13641188 [kcal/mol]     573.77874731 [kJ/mol]
  Total SAPT2+                    218.53078036 [mEh]     137.13013499 [kcal/mol]     573.75248479 [kJ/mol]

  Special recipe for scaled SAPT0 (see Manual):
    Electrostatics sSAPT0         224.80208963 [mEh]     141.06544097 [kcal/mol]     590.21780502 [kJ/mol]
    Exchange sSAPT0                 1.32185572 [mEh]       0.82947699 [kcal/mol]       3.47053172 [kJ/mol]
    Induction sSAPT0               -7.75466390 [mEh]      -4.86612506 [kcal/mol]     -20.35986726 [kJ/mol]
    Dispersion sSAPT0              -0.15324058 [mEh]      -0.09615991 [kcal/mol]      -0.40233308 [kJ/mol]
  Total sSAPT0                    218.21604088 [mEh]     136.93263298 [kcal/mol]     572.92613639 [kJ/mol]
  --------------------------------------------------------------------------------------------------------

*** Psi4 exiting successfully. Buy a developer a beer!
