                               Psi4 1.9 release

  ==> Input File <==

--------------------------------------------------------------------------
MEMORY 60 GB

molecule dimer {
1 1
Na     0.000000     0.000000     0.000000
--
1 1
Na     2.448000     0.000000     0.000000

units ang
no_reorient
no_com
symmetry c1
}

set {
basis        aug-cc-pVTZ
scf_type     df
}

energy("sapt2+")
--------------------------------------------------------------------------

  //              Dimer HF             //
    Molecular point group: c1
  Charge       = 2
  Multiplicity = 1
  Basis Set: AUG-CC-PVTZ
    Blend: AUG-CC-PVTZ
  Basis Set: (AUG-CC-PVTZ AUX)
    Blend: DEF2-UNIVERSAL-JKFIT
  @DF-RHF Final Energy:  -323.13672364713511
    Total Energy =                       -323.1367236471351134
 Dipole X            :        -46.2604956           50.8865451            4.6260496
 Dipole Y            :          0.0000000            0.0000000            0.0000000
 Dipole Z            :          0.0000000            0.0000000            0.0000000
 Magnitude           :                                                    4.6260496
  //            Monomer A HF           //
    Molecular point group: c1
  Multiplicity = 1
  Basis Set: AUG-CC-PVTZ
    Blend: AUG-CC-PVTZ
  Basis Set: (AUG-CC-PVTZ AUX)
    Blend: DEF2-UNIVERSAL-JKFIT
  @DF-RHF Final Energy:  -161.67604780921408
    Total Energy =                       -161.6760478092140829
  //            Monomer B HF           //
    Molecular point group: c1

    Geometry (in Angstrom), charge = 1, multiplicity = 1:

       Center              X                  Y                   Z               Mass
    ------------   -----------------  -----------------  -----------------  -----------------
      Gh(NA)          0.000000000000     0.000000000000     0.000000000000    22.989769282000
         NA           2.448000000000     0.000000000000     0.000000000000    22.989769282000

  Charge       = 1
  Multiplicity = 1
  Basis Set: AUG-CC-PVTZ
    Blend: AUG-CC-PVTZ
  Basis Set: (AUG-CC-PVTZ AUX)
    Blend: DEF2-UNIVERSAL-JKFIT

    Orbital Energies [Eh]
    ---------------------

    Doubly Occupied:

       1A    -40.762179     2A     -3.074621     3A     -1.797935
       4A     -1.797813     5A     -1.797813

  @DF-RHF Final Energy:  -161.67604780921960

   => Energetics <=

    Nuclear Repulsion Energy =              0.0000000000000000
    One-Electron Energy =                -224.8913737506265420
    Two-Electron Energy =                  63.2153259414069595
    Total Energy =                       -161.6760478092195967
 Dipole X            :        -46.2610108           50.8865451            4.6255343
 Dipole Y            :          0.0000000            0.0000000            0.0000000
 Dipole Z            :         -0.0000000            0.0000000           -0.0000000
 Magnitude           :                                                    4.6255343

    SAPT Results
  --------------------------------------------------------------------------------------------------------
    Electrostatics                216.02475774 [mEh]     135.55758205 [kcal/mol]     567.17292330 [kJ/mol]
      Elst10,r                    216.20883432 [mEh]     135.67309185 [kcal/mol]     567.65621631 [kJ/mol]
      Elst12,r                     -0.18407659 [mEh]      -0.11550980 [kcal/mol]      -0.48329301 [kJ/mol]

    Exchange                        0.26509099 [mEh]       0.16634711 [kcal/mol]       0.69599629 [kJ/mol]
      Exch10                        0.24160922 [mEh]       0.15161207 [kcal/mol]       0.63434492 [kJ/mol]
      Exch10(S^2)                   0.24158929 [mEh]       0.15159957 [kcal/mol]       0.63429259 [kJ/mol]
      Exch11(S^2)                  -0.00180332 [mEh]      -0.00113160 [kcal/mol]      -0.00473462 [kJ/mol]
      Exch12(S^2)                   0.02528509 [mEh]       0.01586663 [kcal/mol]       0.06638600 [kJ/mol]

    Induction                      -1.16971837 [mEh]      -0.73400936 [kcal/mol]      -3.07109515 [kJ/mol]
      Ind20,r                      -1.15517391 [mEh]      -0.72488257 [kcal/mol]      -3.03290868 [kJ/mol]
      Ind22                        -0.09790892 [mEh]      -0.06143878 [kcal/mol]      -0.25705984 [kJ/mol]
      Exch-Ind20,r                  0.07861072 [mEh]       0.04932897 [kcal/mol]       0.20639241 [kJ/mol]
      Exch-Ind22                    0.00666280 [mEh]       0.00418097 [kcal/mol]       0.01749317 [kJ/mol]
      delta HF,r (2)               -0.00190906 [mEh]      -0.00119795 [kcal/mol]      -0.00501222 [kJ/mol]

    Dispersion                     -0.04406212 [mEh]      -0.02764940 [kcal/mol]      -0.11568508 [kJ/mol]
      Disp20                       -0.03233520 [mEh]      -0.02029064 [kcal/mol]      -0.08489605 [kJ/mol]
      Disp21                       -0.00555807 [mEh]      -0.00348774 [kcal/mol]      -0.01459270 [kJ/mol]
      Disp22 (SDQ)                 -0.00377518 [mEh]      -0.00236896 [kcal/mol]      -0.00991175 [kJ/mol]
      Disp22 (T)                   -0.00142239 [mEh]      -0.00089256 [kcal/mol]      -0.00373449 [kJ/mol]
      Est. Disp22 (T)              -0.00167661 [mEh]      -0.00105209 [kcal/mol]      -0.00440195 [kJ/mol]
      Exch-Disp20                  -0.00071706 [mEh]      -0.00044996 [kcal/mol]      -0.00188263 [kJ/mol]

  Total HF                        215.37197130 [mEh]     135.14795238 [kcal/mol]     565.45903274 [kJ/mol]
  Total SAPT0                     215.33891904 [mEh]     135.12721177 [kcal/mol]     565.37225406 [kJ/mol]
  Total SAPT2                     215.08707810 [mEh]     134.96917920 [kcal/mol]     564.71104575 [kJ/mol]
  Total SAPT2+                    215.07606823 [mEh]     134.96227040 [kcal/mol]     564.68213935 [kJ/mol]

  Special recipe for scaled SAPT0 (see Manual):
    Electrostatics sSAPT0         216.20883432 [mEh]     135.67309185 [kcal/mol]     567.65621631 [kJ/mol]
    Exchange sSAPT0                 0.24160922 [mEh]       0.15161207 [kcal/mol]       0.63434492 [kJ/mol]
    Induction sSAPT0               -1.07845279 [mEh]      -0.67673934 [kcal/mol]      -2.83147740 [kJ/mol]
    Dispersion sSAPT0              -0.03305243 [mEh]      -0.02074071 [kcal/mol]      -0.08677915 [kJ/mol]
  Total sSAPT0                    215.33893832 [mEh]     135.12722387 [kcal/mol]     565.37230468 [kJ/mol]
  --------------------------------------------------------------------------------------------------------

*** Psi4 exiting successfully. Buy a developer a beer!
