                               Psi4 1.9 release

  ==> Input File <==

--------------------------------------------------------------------------
MEMORY 60 GB

molecule dimer {
1 1
Na     0.000000     0.000000     0.000000
--
1 1
Na     2.652000     0.000000     0.000000

units ang
no_reorient
no_com
symmetry c1
}

set {
basis        aug-cc-pVTZ
scf_type     df
}

energy("sapt2+")
--------------------------------------------------------------------------

  //              Dimer HF             //
    Molecular point group: c1
  Charge       = 2
  Multiplicity = 1
  Basis Set: AUG-CC-PVTZ
    Blend: AUG-CC-PVTZ
  Basis Set: (AUG-CC-PVTZ AUX)
    Blend: DEF2-UNIVERSAL-JKFIT
  @DF-RHF Final Energy:  -323.15323156696877
    Total Energy =                       -323.1532315669687705
 Dipole X            :        -50.1155368           55.1270905            5.0115537
 Dipole Y            :          0.0000000            0.0000000            0.0000000
 Dipole Z            :         -0.0000000            0.0000000           -0.0000000
 Magnitude           :                                                    5.0115537
  //            Monomer A HF           //
    Molecular point group: c1
  Multiplicity = 1
  Basis Set: AUG-CC-PVTZ
    Blend: AUG-CC-PVTZ
  Basis Set: (AUG-CC-PVTZ AUX)
    Blend: DEF2-UNIVERSAL-JKFIT
  @DF-RHF Final Energy:  -161.67604384827197
    Total Energy =                       -161.6760438482719451
  //            Monomer B HF           //
    Molecular point group: c1

    Geometry (in Angstrom), charge = 1, multiplicity = 1:

       Center              X                  Y                   Z               Mass
    ------------   -----------------  -----------------  -----------------  -----------------
      Gh(NA)          0.000000000000     0.000000000000     0.000000000000    22.989769282000
         NA           2.652000000000     0.000000000000     0.000000000000    22.989769282000

  Charge       = 1
  Multiplicity = 1
  Basis Set: AUG-CC-PVTZ
    Blend: AUG-CC-PVTZ
  Basis Set: (AUG-CC-PVTZ AUX)
    Blend: DEF2-UNIVERSAL-JKFIT

    Orbital Energies [Eh]
    ---------------------

    Doubly Occupied:

       1A    -40.762601     2A     -3.074787     3A     -1.798049
       4A     -1.797975     5A     -1.797975

  @DF-RHF Final Energy:  -161.67604384826066

   => Energetics <=

    Nuclear Repulsion Energy =              0.0000000000000000
    One-Electron Energy =                -224.8893170187860449
    Two-Electron Energy =                  63.2132731705253903
    Total Energy =                       -161.6760438482606617
 Dipole X            :        -50.1160414           55.1270905            5.0110492
 Dipole Y            :          0.0000000            0.0000000            0.0000000
 Dipole Z            :         -0.0000000            0.0000000           -0.0000000
 Magnitude           :                                                    5.0110492

    SAPT Results
  --------------------------------------------------------------------------------------------------------
    Electrostatics                199.49692341 [mEh]     125.18620943 [kcal/mol]     523.77910024 [kJ/mol]
      Elst10,r                    199.58545265 [mEh]     125.24176237 [kcal/mol]     524.01153374 [kJ/mol]
      Elst12,r                     -0.08852924 [mEh]      -0.05555294 [kcal/mol]      -0.23243350 [kJ/mol]

    Exchange                        0.07220337 [mEh]       0.04530830 [kcal/mol]       0.18956991 [kJ/mol]
      Exch10                        0.06504357 [mEh]       0.04081546 [kcal/mol]       0.17077188 [kJ/mol]
      Exch10(S^2)                   0.06504202 [mEh]       0.04081449 [kcal/mol]       0.17076781 [kJ/mol]
      Exch11(S^2)                  -0.00075651 [mEh]      -0.00047471 [kcal/mol]      -0.00198621 [kJ/mol]
      Exch12(S^2)                   0.00791630 [mEh]       0.00496755 [kcal/mol]       0.02078424 [kJ/mol]

    Induction                      -0.86043424 [mEh]      -0.53993064 [kcal/mol]      -2.25906979 [kJ/mol]
      Ind20,r                      -0.80823059 [mEh]      -0.50717235 [kcal/mol]      -2.12200913 [kJ/mol]
      Ind22                        -0.06779190 [mEh]      -0.04254006 [kcal/mol]      -0.17798762 [kJ/mol]
      Exch-Ind20,r                  0.02055774 [mEh]       0.01290018 [kcal/mol]       0.05397435 [kJ/mol]
      Exch-Ind22                    0.00172432 [mEh]       0.00108203 [kcal/mol]       0.00452720 [kJ/mol]
      delta HF,r (2)               -0.00669381 [mEh]      -0.00420043 [kcal/mol]      -0.01757460 [kJ/mol]

    Dispersion                     -0.02709378 [mEh]      -0.01700160 [kcal/mol]      -0.07113470 [kJ/mol]
      Disp20                       -0.02000738 [mEh]      -0.01255482 [kcal/mol]      -0.05252937 [kJ/mol]
      Disp21                       -0.00348420 [mEh]      -0.00218637 [kcal/mol]      -0.00914778 [kJ/mol]
      Disp22 (SDQ)                 -0.00233459 [mEh]      -0.00146498 [kcal/mol]      -0.00612947 [kJ/mol]
      Disp22 (T)                   -0.00076007 [mEh]      -0.00047695 [kcal/mol]      -0.00199555 [kJ/mol]
      Est. Disp22 (T)              -0.00092458 [mEh]      -0.00058019 [kcal/mol]      -0.00242750 [kJ/mol]
      Exch-Disp20                  -0.00034301 [mEh]      -0.00021524 [kcal/mol]      -0.00090058 [kJ/mol]

  Total HF                        198.85612956 [mEh]     124.78410522 [kcal/mol]     522.09669624 [kJ/mol]
  Total SAPT0                     198.83577917 [mEh]     124.77133516 [kcal/mol]     522.04326629 [kJ/mol]
  Total SAPT2                     198.68834214 [mEh]     124.67881702 [kcal/mol]     521.65617041 [kJ/mol]
  Total SAPT2+                    198.68159875 [mEh]     124.67458548 [kcal/mol]     521.63846566 [kJ/mol]

  Special recipe for scaled SAPT0 (see Manual):
    Electrostatics sSAPT0         199.58545265 [mEh]     125.24176237 [kcal/mol]     524.01153374 [kJ/mol]
    Exchange sSAPT0                 0.06504357 [mEh]       0.04081546 [kcal/mol]       0.17077188 [kJ/mol]
    Induction sSAPT0               -0.79436519 [mEh]      -0.49847168 [kcal/mol]      -2.08560552 [kJ/mol]
    Dispersion sSAPT0              -0.02035042 [mEh]      -0.01277008 [kcal/mol]      -0.05343002 [kJ/mol]
  Total sSAPT0                    198.83578062 [mEh]     124.77133606 [kcal/mol]     522.04327008 [kJ/mol]
  --------------------------------------------------------------------------------------------------------

*** Psi4 exiting successfully. Buy a developer a beer!
