                               Psi4 1.9 release

  ==> Input File <==

--------------------------------------------------------------------------
MEMORY 60 GB

molecule dimer {
1 1
Na     0.000000     0.000000     0.000000
--
1 1
Na     2.244000     0.000000     0.000000

units ang
no_reorient
no_com
symmetry c1
}

set {
basis        aug-cc-pVTZ
scf_type     df
}

energy("sapt2+")
--------------------------------------------------------------------------

  //              Dimer HF             //
    Molecular point group: c1
  Charge       = 2
  Multiplicity = 1
  Basis Set: AUG-CC-PVTZ
    Blend: AUG-CC-PVTZ
  Basis Set: (AUG-CC-PVTZ AUX)
    Blend: DEF2-UNIVERSAL-JKFIT
  @DF-RHF Final Energy:  -323.11690219861038
    Total Energy =                       -323.1169021986103758
 Dipole X            :        -42.4054543           46.6459997            4.2405454
 Dipole Y            :         -0.0000000            0.0000000           -0.0000000
 Dipole Z            :         -0.0000000            0.0000000           -0.0000000
 Magnitude           :                                                    4.2405454
  //            Monomer A HF           //
    Molecular point group: c1
  Multiplicity = 1
  Basis Set: AUG-CC-PVTZ
    Blend: AUG-CC-PVTZ
  Basis Set: (AUG-CC-PVTZ AUX)
    Blend: DEF2-UNIVERSAL-JKFIT
  @DF-RHF Final Energy:  -161.67605038416264
    Total Energy =                       -161.6760503841626360
  //            Monomer B HF           //
    Molecular point group: c1

    Geometry (in Angstrom), charge = 1, multiplicity = 1:

       Center              X                  Y                   Z               Mass
    ------------   -----------------  -----------------  -----------------  -----------------
      Gh(NA)          0.000000000000     0.000000000000     0.000000000000    22.989769282000
         NA           2.244000000000     0.000000000000     0.000000000000    22.989769282000

  Charge       = 1
  Multiplicity = 1
  Basis Set: AUG-CC-PVTZ
    Blend: AUG-CC-PVTZ
  Basis Set: (AUG-CC-PVTZ AUX)
    Blend: DEF2-UNIVERSAL-JKFIT

    Orbital Energies [Eh]
    ---------------------

    Doubly Occupied:

       1A    -40.761856     2A     -3.074475     3A     -1.797825
       4A     -1.797674     5A     -1.797674

  @DF-RHF Final Energy:  -161.67605038415155

   => Energetics <=

    Nuclear Repulsion Energy =              0.0000000000000000
    One-Electron Energy =                -224.8930945195332072
    Two-Electron Energy =                  63.2170441353816415
    Total Energy =                       -161.6760503841515515
 Dipole X            :        -42.4061543           46.6459997            4.2398454
 Dipole Y            :          0.0000000            0.0000000            0.0000000
 Dipole Z            :         -0.0000000            0.0000000           -0.0000000
 Magnitude           :                                                    4.2398454

    SAPT Results
  --------------------------------------------------------------------------------------------------------
    Electrostatics                235.27164207 [mEh]     147.63518431 [kcal/mol]     617.70561115 [kJ/mol]
      Elst10,r                    235.81837647 [mEh]     147.97826533 [kcal/mol]     619.14106213 [kJ/mol]
      Elst12,r                     -0.54673440 [mEh]      -0.34308102 [kcal/mol]      -1.43545097 [kJ/mol]

    Exchange                        0.97019545 [mEh]       0.60880684 [kcal/mol]       2.54724780 [kJ/mol]
      Exch10                        0.87407933 [mEh]       0.54849306 [kcal/mol]       2.29489498 [kJ/mol]
      Exch10(S^2)                   0.87384006 [mEh]       0.54834292 [kcal/mol]       2.29426677 [kJ/mol]
      Exch11(S^2)                  -0.00433032 [mEh]      -0.00271732 [kcal/mol]      -0.01136925 [kJ/mol]
      Exch12(S^2)                   0.10044643 [mEh]       0.06303109 [kcal/mol]       0.26372208 [kJ/mol]

    Induction                      -1.67601839 [mEh]      -1.05171742 [kcal/mol]      -4.40038568 [kJ/mol]
      Ind20,r                      -1.80298678 [mEh]      -1.13139128 [kcal/mol]      -4.73374113 [kJ/mol]
      Ind22                        -0.21494576 [mEh]      -0.13488050 [kcal/mol]      -0.56434003 [kJ/mol]
      Exch-Ind20,r                  0.27524274 [mEh]       0.17271743 [kcal/mol]       0.72264972 [kJ/mol]
      Exch-Ind22                    0.03281348 [mEh]       0.02059077 [kcal/mol]       0.08615177 [kJ/mol]
      delta HF,r (2)                0.03385793 [mEh]       0.02124617 [kcal/mol]       0.08889399 [kJ/mol]

    Dispersion                     -0.07321496 [mEh]      -0.04594308 [kcal/mol]      -0.19222585 [kJ/mol]
      Disp20                       -0.05553304 [mEh]      -0.03484751 [kcal/mol]      -0.14580198 [kJ/mol]
      Disp21                       -0.00936879 [mEh]      -0.00587900 [kcal/mol]      -0.02459775 [kJ/mol]
      Disp22 (SDQ)                 -0.00627143 [mEh]      -0.00393538 [kcal/mol]      -0.01646565 [kJ/mol]
      Disp22 (T)                   -0.00256766 [mEh]      -0.00161123 [kcal/mol]      -0.00674140 [kJ/mol]
      Est. Disp22 (T)              -0.00307950 [mEh]      -0.00193242 [kcal/mol]      -0.00808524 [kJ/mol]
      Exch-Disp20                   0.00103781 [mEh]       0.00065123 [kcal/mol]       0.00272476 [kJ/mol]

  Total HF                        235.19856970 [mEh]     147.58933071 [kcal/mol]     617.51375968 [kJ/mol]
  Total SAPT0                     235.14407447 [mEh]     147.55513443 [kcal/mol]     617.37068247 [kJ/mol]
  Total SAPT2                     234.51132390 [mEh]     147.15807745 [kcal/mol]     615.70939606 [kJ/mol]
  Total SAPT2+                    234.49260417 [mEh]     147.14633065 [kcal/mol]     615.66024743 [kJ/mol]

  Special recipe for scaled SAPT0 (see Manual):
    Electrostatics sSAPT0         235.81837647 [mEh]     147.97826533 [kcal/mol]     619.14106213 [kJ/mol]
    Exchange sSAPT0                 0.87407933 [mEh]       0.54849306 [kcal/mol]       2.29489498 [kJ/mol]
    Induction sSAPT0               -1.49365994 [mEh]      -0.93728577 [kcal/mol]      -3.92160364 [kJ/mol]
    Dispersion sSAPT0              -0.05449438 [mEh]      -0.03419574 [kcal/mol]      -0.14307498 [kJ/mol]
  Total sSAPT0                    235.14430148 [mEh]     147.55527688 [kcal/mol]     617.37127848 [kJ/mol]
  --------------------------------------------------------------------------------------------------------

*** Psi4 exiting successfully. Buy a developer a beer!
