                               Psi4 1.9 release

  ==> Input File <==

--------------------------------------------------------------------------
MEMORY 60 GB

molecule dimer {
1 1
Na     0.000000     0.000000     0.000000
--
1 1
Na     2.040000     0.000000     0.000000

units ang
no_reorient
no_com
symmetry c1
}

set {
basis        aug-cc-pVTZ
scf_type     df
}

energy("sapt2+")
--------------------------------------------------------------------------

  //              Dimer HF             //
    Molecular point group: c1
  Charge       = 2
  Multiplicity = 1
  Basis Set: AUG-CC-PVTZ
    Blend: AUG-CC-PVTZ
  Basis Set: (AUG-CC-PVTZ AUX)
    Blend: DEF2-UNIVERSAL-JKFIT
  @DF-RHF Final Energy:  -323.09186548676712
    Total Energy =                       -323.0918654867671194
 Dipole X            :        -38.5504130           42.4054543            3.8550413
 Dipole Y            :         -0.0000000            0.0000000           -0.0000000
 Dipole Z            :         -0.0000000            0.0000000           -0.0000000
 Magnitude           :                                                    3.8550413
  //            Monomer A HF           //
    Molecular point group: c1
  Multiplicity = 1
  Basis Set: AUG-CC-PVTZ
    Blend: AUG-CC-PVTZ
  Basis Set: (AUG-CC-PVTZ AUX)
    Blend: DEF2-UNIVERSAL-JKFIT
  @DF-RHF Final Energy:  -161.67605257761170
    Total Energy =                       -161.6760525776116992
  //            Monomer B HF           //
    Molecular point group: c1

    Geometry (in Angstrom), charge = 1, multiplicity = 1:

       Center              X                  Y                   Z               Mass
    ------------   -----------------  -----------------  -----------------  -----------------
      Gh(NA)          0.000000000000     0.000000000000     0.000000000000    22.989769282000
         NA           2.040000000000     0.000000000000     0.000000000000    22.989769282000

  Charge       = 1
  Multiplicity = 1
  Basis Set: AUG-CC-PVTZ
    Blend: AUG-CC-PVTZ
  Basis Set: (AUG-CC-PVTZ AUX)
    Blend: DEF2-UNIVERSAL-JKFIT

    Orbital Energies [Eh]
    ---------------------

    Doubly Occupied:

       1A    -40.761674     2A     -3.074384     3A     -1.797703
       4A     -1.797613     5A     -1.797613

  @DF-RHF Final Energy:  -161.67605257762060

   => Energetics <=

    Nuclear Repulsion Energy =              0.0000000000000000
    One-Electron Energy =                -224.8941311073998008
    Two-Electron Energy =                  63.2180785297792127
    Total Energy =                       -161.6760525776205952
 Dipole X            :        -38.5511795           42.4054543            3.8542748
 Dipole Y            :          0.0000000            0.0000000            0.0000000
 Dipole Z            :         -0.0000000            0.0000000           -0.0000000
 Magnitude           :                                                    3.8542748

    SAPT Results
  --------------------------------------------------------------------------------------------------------
    Electrostatics                258.46100182 [mEh]     162.18672725 [kcal/mol]     678.58926680 [kJ/mol]
      Elst10,r                    259.13695440 [mEh]     162.61089389 [kcal/mol]     680.36398005 [kJ/mol]
      Elst12,r                     -0.67595258 [mEh]      -0.42416665 [kcal/mol]      -1.77471325 [kJ/mol]

    Exchange                        3.41246480 [mEh]       2.14135399 [kcal/mol]       8.95942509 [kJ/mol]
      Exch10                        3.09435161 [mEh]       1.94173495 [kcal/mol]       8.12421904 [kJ/mol]
      Exch10(S^2)                   3.09166665 [mEh]       1.94005011 [kcal/mol]       8.11716966 [kJ/mol]
      Exch11(S^2)                  -0.02388082 [mEh]      -0.01498544 [kcal/mol]      -0.06269909 [kJ/mol]
      Exch12(S^2)                   0.34199401 [mEh]       0.21460448 [kcal/mol]       0.89790514 [kJ/mol]

    Induction                      -2.21435830 [mEh]      -1.38953081 [kcal/mol]      -5.81379692 [kJ/mol]
      Ind20,r                      -3.12784764 [mEh]      -1.96275403 [kcal/mol]      -8.21216285 [kJ/mol]
      Ind22                        -0.32459359 [mEh]      -0.20368555 [kcal/mol]      -0.85222035 [kJ/mol]
      Exch-Ind20,r                  0.98166668 [mEh]       0.61600514 [kcal/mol]       2.57736552 [kJ/mol]
      Exch-Ind22                    0.10187284 [mEh]       0.06392617 [kcal/mol]       0.26746710 [kJ/mol]
      delta HF,r (2)                0.15454341 [mEh]       0.09697745 [kcal/mol]       0.40575366 [kJ/mol]

    Dispersion                     -0.11900911 [mEh]      -0.07467935 [kcal/mol]      -0.31245839 [kJ/mol]
      Disp20                       -0.09576709 [mEh]      -0.06009476 [kcal/mol]      -0.25143647 [kJ/mol]
      Disp21                       -0.01532566 [mEh]      -0.00961700 [kcal/mol]      -0.04023751 [kJ/mol]
      Disp22 (SDQ)                 -0.01062701 [mEh]      -0.00666855 [kcal/mol]      -0.02790121 [kJ/mol]
      Disp22 (T)                   -0.00459843 [mEh]      -0.00288556 [kcal/mol]      -0.01207318 [kJ/mol]
      Est. Disp22 (T)              -0.00547144 [mEh]      -0.00343338 [kcal/mol]      -0.01436527 [kJ/mol]
      Exch-Disp20                   0.00818209 [mEh]       0.00513434 [kcal/mol]       0.02148208 [kJ/mol]

  Total HF                        260.23966847 [mEh]     163.30285741 [kcal/mol]     683.25915542 [kJ/mol]
  Total SAPT0                     260.15208346 [mEh]     163.24789700 [kcal/mol]     683.02920103 [kJ/mol]
  Total SAPT2                     259.57152332 [mEh]     162.88359000 [kcal/mol]     681.50494057 [kJ/mol]
  Total SAPT2+                    259.54009920 [mEh]     162.86387108 [kcal/mol]     681.42243658 [kJ/mol]

  Special recipe for scaled SAPT0 (see Manual):
    Electrostatics sSAPT0         259.13695440 [mEh]     162.61089389 [kcal/mol]     680.36398005 [kJ/mol]
    Exchange sSAPT0                 3.09435161 [mEh]       1.94173495 [kcal/mol]       8.12421904 [kJ/mol]
    Induction sSAPT0               -1.98907774 [mEh]      -1.24816512 [kcal/mol]      -5.22232288 [kJ/mol]
    Dispersion sSAPT0              -0.08756367 [mEh]      -0.05494703 [kcal/mol]      -0.22989838 [kJ/mol]
  Total sSAPT0                    260.15466461 [mEh]     163.24951669 [kcal/mol]     683.03597784 [kJ/mol]
  --------------------------------------------------------------------------------------------------------

*** Psi4 exiting successfully. Buy a developer a beer!
