                               Psi4 1.9 release

  ==> Input File <==

--------------------------------------------------------------------------
MEMORY 60 GB

molecule dimer {
1 1
Na     0.000000     0.000000     0.000000
--
1 1
Na     3.060000     0.000000     0.000000

units ang
no_reorient
no_com
symmetry c1
}

set {
basis        aug-cc-pVTZ
scf_type     df
}

energy("sapt2+")
--------------------------------------------------------------------------

  //              Dimer HF             //
    Molecular point group: c1
  Charge       = 2
  Multiplicity = 1
  Basis Set: AUG-CC-PVTZ
    Blend: AUG-CC-PVTZ
  Basis Set: (AUG-CC-PVTZ AUX)
    Blend: DEF2-UNIVERSAL-JKFIT
  @DF-RHF Final Energy:  -323.17953805554157
    Total Energy =                       -323.1795380555415136
 Dipole X            :        -57.8256194           63.6081814            5.7825619
 Dipole Y            :          0.0000000            0.0000000            0.0000000
 Dipole Z            :         -0.0000000            0.0000000           -0.0000000
 Magnitude           :                                                    5.7825619
  //            Monomer A HF           //
    Molecular point group: c1
  Multiplicity = 1
  Basis Set: AUG-CC-PVTZ
    Blend: AUG-CC-PVTZ
  Basis Set: (AUG-CC-PVTZ AUX)
    Blend: DEF2-UNIVERSAL-JKFIT
  @DF-RHF Final Energy:  -161.67603749023422
    Total Energy =                       -161.6760374902342221
  //            Monomer B HF           //
    Molecular point group: c1

    Geometry (in Angstrom), charge = 1, multiplicity = 1:

       Center              X                  Y                   Z               Mass
    ------------   -----------------  -----------------  -----------------  -----------------
      Gh(NA)          0.000000000000     0.000000000000     0.000000000000    22.989769282000
         NA           3.060000000000     0.000000000000     0.000000000000    22.989769282000

  Charge       = 1
  Multiplicity = 1
  Basis Set: AUG-CC-PVTZ
    Blend: AUG-CC-PVTZ
  Basis Set: (AUG-CC-PVTZ AUX)
    Blend: DEF2-UNIVERSAL-JKFIT

    Orbital Energies [Eh]
    ---------------------

    Doubly Occupied:

       1A    -40.762928     2A     -3.074952     3A     -1.798213
       4A     -1.798112     5A     -1.798112

  @DF-RHF Final Energy:  -161.67603749022635

   => Energetics <=

    Nuclear Repulsion Energy =              0.0000000000000000
    One-Electron Energy =                -224.8874383633826710
    Two-Electron Energy =                  63.2114008731563359
    Total Energy =                       -161.6760374902263493
 Dipole X            :        -57.8261396           63.6081814            5.7820418
 Dipole Y            :          0.0000000            0.0000000            0.0000000
 Dipole Z            :         -0.0000000            0.0000000           -0.0000000
 Magnitude           :                                                    5.7820418

    SAPT Results
  --------------------------------------------------------------------------------------------------------
    Electrostatics                172.90952009 [mEh]     108.50236196 [kcal/mol]     453.97388245 [kJ/mol]
      Elst10,r                    172.97195318 [mEh]     108.54153932 [kcal/mol]     454.13780049 [kJ/mol]
      Elst12,r                     -0.06243309 [mEh]      -0.03917735 [kcal/mol]      -0.16391805 [kJ/mol]

    Exchange                        0.00106258 [mEh]       0.00066678 [kcal/mol]       0.00278980 [kJ/mol]
      Exch10                        0.00500789 [mEh]       0.00314250 [kcal/mol]       0.01314821 [kJ/mol]
      Exch10(S^2)                   0.00500788 [mEh]       0.00314249 [kcal/mol]       0.01314818 [kJ/mol]
      Exch11(S^2)                   0.00001995 [mEh]       0.00001252 [kcal/mol]       0.00005238 [kJ/mol]
      Exch12(S^2)                  -0.00396526 [mEh]      -0.00248824 [kcal/mol]      -0.01041079 [kJ/mol]

    Induction                      -0.47262850 [mEh]      -0.29657886 [kcal/mol]      -1.24088596 [kJ/mol]
      Ind20,r                      -0.43684323 [mEh]      -0.27412326 [kcal/mol]      -1.14693174 [kJ/mol]
      Ind22                        -0.03267368 [mEh]      -0.02050304 [kcal/mol]      -0.08578472 [kJ/mol]
      Exch-Ind20,r                  0.00108722 [mEh]       0.00068224 [kcal/mol]       0.00285450 [kJ/mol]
      Exch-Ind22                    0.00008132 [mEh]       0.00005103 [kcal/mol]       0.00021350 [kJ/mol]
      delta HF,r (2)               -0.00428014 [mEh]      -0.00268583 [kcal/mol]      -0.01123751 [kJ/mol]

    Dispersion                     -0.01053039 [mEh]      -0.00660792 [kcal/mol]      -0.02764752 [kJ/mol]
      Disp20                       -0.00787589 [mEh]      -0.00494220 [kcal/mol]      -0.02067815 [kJ/mol]
      Disp21                       -0.00138276 [mEh]      -0.00086769 [kcal/mol]      -0.00363043 [kJ/mol]
      Disp22 (SDQ)                 -0.00092172 [mEh]      -0.00057839 [kcal/mol]      -0.00241998 [kJ/mol]
      Disp22 (T)                   -0.00035720 [mEh]      -0.00022414 [kcal/mol]      -0.00093782 [kJ/mol]
      Est. Disp22 (T)              -0.00041488 [mEh]      -0.00026034 [kcal/mol]      -0.00108927 [kJ/mol]
      Exch-Disp20                   0.00006487 [mEh]       0.00004071 [kcal/mol]       0.00017031 [kJ/mol]

  Total HF                        172.53692492 [mEh]     108.26855496 [kcal/mol]     452.99563397 [kJ/mol]
  Total SAPT0                     172.52911390 [mEh]     108.26365347 [kcal/mol]     452.97512613 [kJ/mol]
  Total SAPT2                     172.43014314 [mEh]     108.20154839 [kcal/mol]     452.71527845 [kJ/mol]
  Total SAPT2+                    172.42742378 [mEh]     108.19984196 [kcal/mol]     452.70813876 [kJ/mol]

  Special recipe for scaled SAPT0 (see Manual):
    Electrostatics sSAPT0         172.97195318 [mEh]     108.54153932 [kcal/mol]     454.13780049 [kJ/mol]
    Exchange sSAPT0                 0.00500789 [mEh]       0.00314250 [kcal/mol]       0.01314821 [kJ/mol]
    Induction sSAPT0               -0.44003615 [mEh]      -0.27612685 [kcal/mol]      -1.15531474 [kJ/mol]
    Dispersion sSAPT0              -0.00781102 [mEh]      -0.00490149 [kcal/mol]      -0.02050784 [kJ/mol]
  Total sSAPT0                    172.52911390 [mEh]     108.26365347 [kcal/mol]     452.97512613 [kJ/mol]
  --------------------------------------------------------------------------------------------------------

*** Psi4 exiting successfully. Buy a developer a beer!
