                               Psi4 1.9 release

  ==> Input File <==

--------------------------------------------------------------------------
MEMORY 60 GB

molecule dimer {
1 1
Na     0.000000     0.000000     0.000000
--
1 1
Na     2.856000     0.000000     0.000000

units ang
no_reorient
no_com
symmetry c1
}

set {
basis        aug-cc-pVTZ
scf_type     df
}

energy("sapt2+")
--------------------------------------------------------------------------

  //              Dimer HF             //
    Molecular point group: c1
  Charge       = 2
  Multiplicity = 1
  Basis Set: AUG-CC-PVTZ
    Blend: AUG-CC-PVTZ
  Basis Set: (AUG-CC-PVTZ AUX)
    Blend: DEF2-UNIVERSAL-JKFIT
  @DF-RHF Final Energy:  -323.16732200779876
    Total Energy =                       -323.1673220077987594
 Dipole X            :        -53.9705781           59.3676360            5.3970578
 Dipole Y            :          0.0000000            0.0000000            0.0000000
 Dipole Z            :          0.0000000            0.0000000            0.0000000
 Magnitude           :                                                    5.3970578
  //            Monomer A HF           //
    Molecular point group: c1
  Multiplicity = 1
  Basis Set: AUG-CC-PVTZ
    Blend: AUG-CC-PVTZ
  Basis Set: (AUG-CC-PVTZ AUX)
    Blend: DEF2-UNIVERSAL-JKFIT
  @DF-RHF Final Energy:  -161.67604052511820
    Total Energy =                       -161.6760405251181965
  //            Monomer B HF           //
    Molecular point group: c1

    Geometry (in Angstrom), charge = 1, multiplicity = 1:

       Center              X                  Y                   Z               Mass
    ------------   -----------------  -----------------  -----------------  -----------------
      Gh(NA)          0.000000000000     0.000000000000     0.000000000000    22.989769282000
         NA           2.856000000000     0.000000000000     0.000000000000    22.989769282000

  Charge       = 1
  Multiplicity = 1
  Basis Set: AUG-CC-PVTZ
    Blend: AUG-CC-PVTZ
  Basis Set: (AUG-CC-PVTZ AUX)
    Blend: DEF2-UNIVERSAL-JKFIT

    Orbital Energies [Eh]
    ---------------------

    Doubly Occupied:

       1A    -40.762771     2A     -3.074868     3A     -1.798128
       4A     -1.798042     5A     -1.798042

  @DF-RHF Final Energy:  -161.67604052512928

   => Energetics <=

    Nuclear Repulsion Energy =              0.0000000000000000
    One-Electron Energy =                -224.8883768576279465
    Two-Electron Energy =                  63.2123363324986656
    Total Energy =                       -161.6760405251292809
 Dipole X            :        -53.9711307           59.3676360            5.3965053
 Dipole Y            :          0.0000000            0.0000000            0.0000000
 Dipole Z            :          0.0000000            0.0000000            0.0000000
 Magnitude           :                                                    5.3965053

    SAPT Results
  --------------------------------------------------------------------------------------------------------
    Electrostatics                185.25728635 [mEh]     116.25070227 [kcal/mol]     486.39293829 [kJ/mol]
      Elst10,r                    185.33179408 [mEh]     116.29745658 [kcal/mol]     486.58855831 [kJ/mol]
      Elst12,r                     -0.07450773 [mEh]      -0.04675431 [kcal/mol]      -0.19562002 [kJ/mol]

    Exchange                        0.01909594 [mEh]       0.01198288 [kcal/mol]       0.05013639 [kJ/mol]
      Exch10                        0.01773778 [mEh]       0.01113062 [kcal/mol]       0.04657053 [kJ/mol]
      Exch10(S^2)                   0.01773765 [mEh]       0.01113054 [kcal/mol]       0.04657020 [kJ/mol]
      Exch11(S^2)                  -0.00011764 [mEh]      -0.00007382 [kcal/mol]      -0.00030886 [kJ/mol]
      Exch12(S^2)                   0.00147580 [mEh]       0.00092608 [kcal/mol]       0.00387471 [kJ/mol]

    Induction                      -0.63423447 [mEh]      -0.39798814 [kcal/mol]      -1.66518238 [kJ/mol]
      Ind20,r                      -0.58982523 [mEh]      -0.37012092 [kcal/mol]      -1.54858594 [kJ/mol]
      Ind22                        -0.04410757 [mEh]      -0.02767792 [kcal/mol]      -0.11580442 [kJ/mol]
      Exch-Ind20,r                  0.00484758 [mEh]       0.00304190 [kcal/mol]       0.01272732 [kJ/mol]
      Exch-Ind22                    0.00036251 [mEh]       0.00022748 [kcal/mol]       0.00095176 [kJ/mol]
      delta HF,r (2)               -0.00551175 [mEh]      -0.00345868 [kcal/mol]      -0.01447111 [kJ/mol]

    Dispersion                     -0.01679777 [mEh]      -0.01054076 [kcal/mol]      -0.04410255 [kJ/mol]
      Disp20                       -0.01253920 [mEh]      -0.00786847 [kcal/mol]      -0.03292167 [kJ/mol]
      Disp21                       -0.00220107 [mEh]      -0.00138119 [kcal/mol]      -0.00577890 [kJ/mol]
      Disp22 (SDQ)                 -0.00146016 [mEh]      -0.00091627 [kcal/mol]      -0.00383366 [kJ/mol]
      Disp22 (T)                   -0.00051652 [mEh]      -0.00032412 [kcal/mol]      -0.00135613 [kJ/mol]
      Est. Disp22 (T)              -0.00061433 [mEh]      -0.00038550 [kcal/mol]      -0.00161293 [kJ/mol]
      Exch-Disp20                   0.00001700 [mEh]       0.00001067 [kcal/mol]       0.00004462 [kJ/mol]

  Total HF                        184.75904245 [mEh]     115.93804950 [kcal/mol]     485.08479912 [kJ/mol]
  Total SAPT0                     184.74652024 [mEh]     115.93019170 [kcal/mol]     485.05192207 [kJ/mol]
  Total SAPT2                     184.62962560 [mEh]     115.85683921 [kcal/mol]     484.74501524 [kJ/mol]
  Total SAPT2+                    184.62535004 [mEh]     115.85415625 [kcal/mol]     484.73378975 [kJ/mol]

  Special recipe for scaled SAPT0 (see Manual):
    Electrostatics sSAPT0         185.33179408 [mEh]     116.29745658 [kcal/mol]     486.58855831 [kJ/mol]
    Exchange sSAPT0                 0.01773778 [mEh]       0.01113062 [kcal/mol]       0.04657053 [kJ/mol]
    Induction sSAPT0               -0.59048930 [mEh]      -0.37053763 [kcal/mol]      -1.55032945 [kJ/mol]
    Dispersion sSAPT0              -0.01252221 [mEh]      -0.00785780 [kcal/mol]      -0.03287705 [kJ/mol]
  Total sSAPT0                    184.74652035 [mEh]     115.93019176 [kcal/mol]     485.05192234 [kJ/mol]
  --------------------------------------------------------------------------------------------------------

*** Psi4 exiting successfully. Buy a developer a beer!
