                               Psi4 1.9 release

  ==> Input File <==

--------------------------------------------------------------------------
MEMORY 60 GB

molecule dimer {
1 1
Na     0.000000     0.000000     0.000000
--
1 1
Na     4.080000     0.000000     0.000000

units ang
no_reorient
no_com
symmetry c1
}

set {
basis        aug-cc-pVTZ
scf_type     df
}

energy("sapt2+")
--------------------------------------------------------------------------

  //              Dimer HF             //
    Molecular point group: c1
  Charge       = 2
  Multiplicity = 1
  Basis Set: AUG-CC-PVTZ
    Blend: AUG-CC-PVTZ
  Basis Set: (AUG-CC-PVTZ AUX)
    Blend: DEF2-UNIVERSAL-JKFIT
  @DF-RHF Final Energy:  -323.22247312675108
    Total Energy =                       -323.2224731267510833
 Dipole X            :        -77.1008259           84.8109085            7.7100826
 Dipole Y            :          0.0000000            0.0000000            0.0000000
 Dipole Z            :         -0.0000000            0.0000000           -0.0000000
 Magnitude           :                                                    7.7100826
  //            Monomer A HF           //
    Molecular point group: c1
  Multiplicity = 1
  Basis Set: AUG-CC-PVTZ
    Blend: AUG-CC-PVTZ
  Basis Set: (AUG-CC-PVTZ AUX)
    Blend: DEF2-UNIVERSAL-JKFIT
  @DF-RHF Final Energy:  -161.67602826272071
    Total Energy =                       -161.6760282627207062
  //            Monomer B HF           //
    Molecular point group: c1

    Geometry (in Angstrom), charge = 1, multiplicity = 1:

       Center              X                  Y                   Z               Mass
    ------------   -----------------  -----------------  -----------------  -----------------
      Gh(NA)          0.000000000000     0.000000000000     0.000000000000    22.989769282000
         NA           4.080000000000     0.000000000000     0.000000000000    22.989769282000

  Charge       = 1
  Multiplicity = 1
  Basis Set: AUG-CC-PVTZ
    Blend: AUG-CC-PVTZ
  Basis Set: (AUG-CC-PVTZ AUX)
    Blend: DEF2-UNIVERSAL-JKFIT

    Orbital Energies [Eh]
    ---------------------

    Doubly Occupied:

       1A    -40.763554     2A     -3.075252     3A     -1.798453
       4A     -1.798390     5A     -1.798390

  @DF-RHF Final Energy:  -161.67602826274069

   => Energetics <=

    Nuclear Repulsion Energy =              0.0000000000000000
    One-Electron Energy =                -224.8839772356061815
    Two-Electron Energy =                  63.2079489728654949
    Total Energy =                       -161.6760282627406866
 Dipole X            :        -77.1010478           84.8109085            7.7098607
 Dipole Y            :          0.0000000            0.0000000            0.0000000
 Dipole Z            :         -0.0000000            0.0000000           -0.0000000
 Magnitude           :                                                    7.7098607

    SAPT Results
  --------------------------------------------------------------------------------------------------------
    Electrostatics                129.70308856 [mEh]      81.38991685 [kcal/mol]     340.53541209 [kJ/mol]
      Elst10,r                    129.70974643 [mEh]      81.39409473 [kcal/mol]     340.55289234 [kJ/mol]
      Elst12,r                     -0.00665788 [mEh]      -0.00417788 [kcal/mol]      -0.01748025 [kJ/mol]

    Exchange                       -0.00057812 [mEh]      -0.00036278 [kcal/mol]      -0.00151786 [kJ/mol]
      Exch10                        0.00000525 [mEh]       0.00000330 [kcal/mol]       0.00001379 [kJ/mol]
      Exch10(S^2)                   0.00000525 [mEh]       0.00000330 [kcal/mol]       0.00001379 [kJ/mol]
      Exch11(S^2)                   0.00000244 [mEh]       0.00000153 [kcal/mol]       0.00000640 [kJ/mol]
      Exch12(S^2)                  -0.00058581 [mEh]      -0.00036760 [kcal/mol]      -0.00153806 [kJ/mol]

    Induction                      -0.13635232 [mEh]      -0.08556237 [kcal/mol]      -0.35799297 [kJ/mol]
      Ind20,r                      -0.12585699 [mEh]      -0.07897646 [kcal/mol]      -0.33043749 [kJ/mol]
      Ind22                        -0.00999999 [mEh]      -0.00627509 [kcal/mol]      -0.02625498 [kJ/mol]
      Exch-Ind20,r                  0.00000816 [mEh]       0.00000512 [kcal/mol]       0.00002143 [kJ/mol]
      Exch-Ind22                    0.00000065 [mEh]       0.00000041 [kcal/mol]       0.00000170 [kJ/mol]
      delta HF,r (2)               -0.00050414 [mEh]      -0.00031636 [kcal/mol]      -0.00132363 [kJ/mol]

    Dispersion                     -0.00148097 [mEh]      -0.00092933 [kcal/mol]      -0.00388830 [kJ/mol]
      Disp20                       -0.00109958 [mEh]      -0.00069000 [kcal/mol]      -0.00288696 [kJ/mol]
      Disp21                       -0.00019232 [mEh]      -0.00012068 [kcal/mol]      -0.00050493 [kJ/mol]
      Disp22 (SDQ)                 -0.00013122 [mEh]      -0.00008234 [kcal/mol]      -0.00034451 [kJ/mol]
      Disp22 (T)                   -0.00005464 [mEh]      -0.00003429 [kcal/mol]      -0.00014347 [kJ/mol]
      Est. Disp22 (T)              -0.00005879 [mEh]      -0.00003689 [kcal/mol]      -0.00015436 [kJ/mol]
      Exch-Disp20                   0.00000094 [mEh]       0.00000059 [kcal/mol]       0.00000246 [kJ/mol]

  Total HF                        129.58339871 [mEh]      81.31481034 [kcal/mol]     340.22116644 [kJ/mol]
  Total SAPT0                     129.58230006 [mEh]      81.31412092 [kcal/mol]     340.21828194 [kJ/mol]
  Total SAPT2                     129.56505947 [mEh]      81.30330229 [kcal/mol]     340.17301676 [kJ/mol]
  Total SAPT2+                    129.56467714 [mEh]      81.30306237 [kcal/mol]     340.17201297 [kJ/mol]

  Special recipe for scaled SAPT0 (see Manual):
    Electrostatics sSAPT0         129.70974643 [mEh]      81.39409473 [kcal/mol]     340.55289234 [kJ/mol]
    Exchange sSAPT0                 0.00000525 [mEh]       0.00000330 [kcal/mol]       0.00001379 [kJ/mol]
    Induction sSAPT0               -0.12635298 [mEh]      -0.07928769 [kcal/mol]      -0.33173970 [kJ/mol]
    Dispersion sSAPT0              -0.00109865 [mEh]      -0.00068941 [kcal/mol]      -0.00288450 [kJ/mol]
  Total sSAPT0                    129.58230006 [mEh]      81.31412092 [kcal/mol]     340.21828194 [kJ/mol]
  --------------------------------------------------------------------------------------------------------

*** Psi4 exiting successfully. Buy a developer a beer!
