                               Psi4 1.9 release

  ==> Input File <==

--------------------------------------------------------------------------
MEMORY 60 GB

molecule dimer {
1 1
Na     0.000000     0.000000     0.000000
--
1 1
K      2.880000     0.000000     0.000000

units ang
no_reorient
no_com
symmetry c1
}

set {
basis        aug-cc-pVTZ
scf_type     df
}

energy("sapt2+")
--------------------------------------------------------------------------

  //              Dimer HF             //
    Molecular point group: c1
  Charge       = 2
  Multiplicity = 1
  Basis Set: AUG-CC-PVTZ
    Blend: AUG-CC-PVTZ
  Basis Set: (AUG-CC-PVTZ AUX)
    Blend: DEF2-UNIVERSAL-JKFIT
  @DF-RHF Final Energy:  -760.51283811409019
    Total Energy =                       -760.5128381140903002
 Dipole X            :        -97.8014734          103.4058136            5.6043402
 Dipole Y            :          0.0000000            0.0000000            0.0000000
 Dipole Z            :          0.0000000            0.0000000            0.0000000
 Magnitude           :                                                    5.6043402
  //            Monomer A HF           //
    Molecular point group: c1
  Multiplicity = 1
  Basis Set: AUG-CC-PVTZ
    Blend: AUG-CC-PVTZ
  Basis Set: (AUG-CC-PVTZ AUX)
    Blend: DEF2-UNIVERSAL-JKFIT
  @DF-RHF Final Energy:  -161.67603868367624
    Total Energy =                       -161.6760386836762677
  //            Monomer B HF           //
    Molecular point group: c1

    Geometry (in Angstrom), charge = 1, multiplicity = 1:

       Center              X                  Y                   Z               Mass
    ------------   -----------------  -----------------  -----------------  -----------------
      Gh(NA)          0.000000000000     0.000000000000     0.000000000000    22.989769282000
         K            2.880000000000     0.000000000000     0.000000000000    38.963706486400

  Charge       = 1
  Multiplicity = 1
  Basis Set: AUG-CC-PVTZ
    Blend: AUG-CC-PVTZ
  Basis Set: (AUG-CC-PVTZ AUX)
    Blend: DEF2-UNIVERSAL-JKFIT

    Orbital Energies [Eh]
    ---------------------

    Doubly Occupied:

       1A   -133.753546     2A    -14.709033     3A    -11.739103
       4A    -11.739101     5A    -11.739101     6A     -1.964266
       7A     -1.170924     8A     -1.170875     9A     -1.170875

  @DF-RHF Final Energy:  -599.01750950400117

   => Energetics <=

    Nuclear Repulsion Energy =              0.0000000000000000
    One-Electron Energy =                -819.7213746827221712
    Two-Electron Energy =                 220.7038651787209744
    Total Energy =                       -599.0175095040011684
 Dipole X            :        -97.9637641          103.4058136            5.4420495
 Dipole Y            :         -0.0000000            0.0000000           -0.0000000
 Dipole Z            :          0.0000000            0.0000000            0.0000000
 Magnitude           :                                                    5.4420495

    SAPT Results
  --------------------------------------------------------------------------------------------------------
    Electrostatics                184.00666370 [mEh]     115.46592471 [kcal/mol]     483.10942900 [kJ/mol]
      Elst10,r                    183.72548518 [mEh]     115.28948253 [kcal/mol]     482.37119489 [kJ/mol]
      Elst12,r                      0.28117852 [mEh]       0.17644219 [kcal/mol]       0.73823411 [kJ/mol]

    Exchange                        0.45686297 [mEh]       0.28668584 [kcal/mol]       1.19949357 [kJ/mol]
      Exch10                        0.42313845 [mEh]       0.26552339 [kcal/mol]       1.11094986 [kJ/mol]
      Exch10(S^2)                   0.42307033 [mEh]       0.26548064 [kcal/mol]       1.11077100 [kJ/mol]
      Exch11(S^2)                  -0.00373270 [mEh]      -0.00234231 [kcal/mol]      -0.00980021 [kJ/mol]
      Exch12(S^2)                   0.03745722 [mEh]       0.02350476 [kcal/mol]       0.09834392 [kJ/mol]

    Induction                      -3.53142302 [mEh]      -2.21600140 [kcal/mol]      -9.27174987 [kJ/mol]
      Ind20,r                      -3.66018603 [mEh]      -2.29680141 [kcal/mol]      -9.60981709 [kJ/mol]
      Ind22                        -0.09896801 [mEh]      -0.06210337 [kcal/mol]      -0.25984048 [kJ/mol]
      Exch-Ind20,r                  0.22541595 [mEh]       0.14145064 [kcal/mol]       0.59182948 [kJ/mol]
      Exch-Ind22                    0.00609504 [mEh]       0.00382469 [kcal/mol]       0.01600252 [kJ/mol]
      delta HF,r (2)               -0.00377997 [mEh]      -0.00237196 [kcal/mol]      -0.00992430 [kJ/mol]

    Dispersion                     -0.13219779 [mEh]      -0.08295537 [kcal/mol]      -0.34708525 [kJ/mol]
      Disp20                       -0.12216699 [mEh]      -0.07666094 [kcal/mol]      -0.32074939 [kJ/mol]
      Disp21                        0.00017144 [mEh]       0.00010758 [kcal/mol]       0.00045012 [kJ/mol]
      Disp22 (SDQ)                 -0.00622700 [mEh]      -0.00390750 [kcal/mol]      -0.01634898 [kJ/mol]
      Disp22 (T)                   -0.00596359 [mEh]      -0.00374221 [kcal/mol]      -0.01565741 [kJ/mol]
      Est. Disp22 (T)              -0.00652237 [mEh]      -0.00409285 [kcal/mol]      -0.01712447 [kJ/mol]
      Exch-Disp20                   0.00254712 [mEh]       0.00159834 [kcal/mol]       0.00668747 [kJ/mol]

  Total HF                        180.71007359 [mEh]     113.39728318 [kcal/mol]     474.45423284 [kJ/mol]
  Total SAPT0                     180.59045372 [mEh]     113.32222058 [kcal/mol]     474.14017092 [kJ/mol]
  Total SAPT2                     180.81248378 [mEh]     113.46154655 [kcal/mol]     474.72311077 [kJ/mol]
  Total SAPT2+                    180.79990586 [mEh]     113.45365378 [kcal/mol]     474.69008744 [kJ/mol]

  Special recipe for scaled SAPT0 (see Manual):
    Electrostatics sSAPT0         183.72548518 [mEh]     115.28948253 [kcal/mol]     482.37119489 [kJ/mol]
    Exchange sSAPT0                 0.42313845 [mEh]       0.26552339 [kcal/mol]       1.11094986 [kJ/mol]
    Induction sSAPT0               -3.43844114 [mEh]      -2.15765439 [kcal/mol]      -9.02762597 [kJ/mol]
    Dispersion sSAPT0              -0.11961864 [mEh]      -0.07506183 [kcal/mol]      -0.31405868 [kJ/mol]
  Total sSAPT0                    180.59056386 [mEh]     113.32228970 [kcal/mol]     474.14046009 [kJ/mol]
  --------------------------------------------------------------------------------------------------------

*** Psi4 exiting successfully. Buy a developer a beer!
