                               Psi4 1.9 release

  ==> Input File <==

--------------------------------------------------------------------------
MEMORY 60 GB

molecule dimer {
1 1
Na     0.000000     0.000000     0.000000
--
1 1
K      2.400000     0.000000     0.000000

units ang
no_reorient
no_com
symmetry c1
}

set {
basis        aug-cc-pVTZ
scf_type     df
}

energy("sapt2+")
--------------------------------------------------------------------------

  //              Dimer HF             //
    Molecular point group: c1
  Charge       = 2
  Multiplicity = 1
  Basis Set: AUG-CC-PVTZ
    Blend: AUG-CC-PVTZ
  Basis Set: (AUG-CC-PVTZ AUX)
    Blend: DEF2-UNIVERSAL-JKFIT
  @DF-RHF Final Energy:  -760.47519266551524
    Total Energy =                       -760.4751926655152374
 Dipole X            :        -81.4206288           86.1715113            4.7508825
 Dipole Y            :          0.0000000            0.0000000            0.0000000
 Dipole Z            :          0.0000000            0.0000000            0.0000000
 Magnitude           :                                                    4.7508825
  //            Monomer A HF           //
    Molecular point group: c1
  Multiplicity = 1
  Basis Set: AUG-CC-PVTZ
    Blend: AUG-CC-PVTZ
  Basis Set: (AUG-CC-PVTZ AUX)
    Blend: DEF2-UNIVERSAL-JKFIT
  @DF-RHF Final Energy:  -161.67604592487834
    Total Energy =                       -161.6760459248783377
  //            Monomer B HF           //
    Molecular point group: c1

    Geometry (in Angstrom), charge = 1, multiplicity = 1:

       Center              X                  Y                   Z               Mass
    ------------   -----------------  -----------------  -----------------  -----------------
      Gh(NA)          0.000000000000     0.000000000000     0.000000000000    22.989769282000
         K            2.400000000000     0.000000000000     0.000000000000    38.963706486400

  Charge       = 1
  Multiplicity = 1
  Basis Set: AUG-CC-PVTZ
    Blend: AUG-CC-PVTZ
  Basis Set: (AUG-CC-PVTZ AUX)
    Blend: DEF2-UNIVERSAL-JKFIT

    Orbital Energies [Eh]
    ---------------------

    Doubly Occupied:

       1A   -133.753217     2A    -14.708778     3A    -11.738846
       4A    -11.738843     5A    -11.738843     6A     -1.964159
       7A     -1.170848     8A     -1.170789     9A     -1.170789

  @DF-RHF Final Energy:  -599.01751081199325

   => Energetics <=

    Nuclear Repulsion Energy =              0.0000000000000000
    One-Electron Energy =                -819.7247957242325356
    Two-Electron Energy =                 220.7072849122392313
    Total Energy =                       -599.0175108119933611
 Dipole X            :        -81.6366807           86.1715113            4.5348307
 Dipole Y            :         -0.0000000            0.0000000           -0.0000000
 Dipole Z            :          0.0000000            0.0000000            0.0000000
 Magnitude           :                                                    4.5348307

    SAPT Results
  --------------------------------------------------------------------------------------------------------
    Electrostatics                220.19115622 [mEh]     138.17203657 [kcal/mol]     578.11180100 [kJ/mol]
      Elst10,r                    219.78218437 [mEh]     137.91540286 [kcal/mol]     577.03804556 [kJ/mol]
      Elst12,r                      0.40897185 [mEh]       0.25663371 [kcal/mol]       1.07375544 [kJ/mol]

    Exchange                        5.42384552 [mEh]       3.40351445 [kcal/mol]      14.24030445 [kJ/mol]
      Exch10                        5.07948278 [mEh]       3.18742356 [kcal/mol]      13.33618019 [kJ/mol]
      Exch10(S^2)                   5.07126788 [mEh]       3.18226864 [kcal/mol]      13.31461198 [kJ/mol]
      Exch11(S^2)                  -0.04996775 [mEh]      -0.03135524 [kcal/mol]      -0.13119031 [kJ/mol]
      Exch12(S^2)                   0.39433049 [mEh]       0.24744612 [kcal/mol]       1.03531457 [kJ/mol]

    Induction                      -6.78103744 [mEh]      -4.25516524 [kcal/mol]     -17.80361136 [kJ/mol]
      Ind20,r                      -9.59185657 [mEh]      -6.01898087 [kcal/mol]     -25.18341594 [kJ/mol]
      Ind22                        -0.39574132 [mEh]      -0.24833143 [kcal/mol]      -1.03901870 [kJ/mol]
      Exch-Ind20,r                  2.72188486 [mEh]       1.70800854 [kcal/mol]       7.14630773 [kJ/mol]
      Exch-Ind22                    0.11229967 [mEh]       0.07046911 [kcal/mol]       0.29484274 [kJ/mol]
      delta HF,r (2)                0.37237591 [mEh]       0.23366941 [kcal/mol]       0.97767282 [kJ/mol]

    Dispersion                     -0.38803749 [mEh]      -0.24349720 [kcal/mol]      -1.01879228 [kJ/mol]
      Disp20                       -0.37763985 [mEh]      -0.23697258 [kcal/mol]      -0.99149329 [kJ/mol]
      Disp21                        0.00108301 [mEh]       0.00067960 [kcal/mol]       0.00284343 [kJ/mol]
      Disp22 (SDQ)                 -0.01726195 [mEh]      -0.01083204 [kcal/mol]      -0.04532124 [kJ/mol]
      Disp22 (T)                   -0.01720609 [mEh]      -0.01079699 [kcal/mol]      -0.04517459 [kJ/mol]
      Est. Disp22 (T)              -0.01958778 [mEh]      -0.01229152 [kcal/mol]      -0.05142771 [kJ/mol]
      Exch-Disp20                   0.02536909 [mEh]       0.01591934 [kcal/mol]       0.06660653 [kJ/mol]

  Total HF                        218.36407136 [mEh]     137.02552351 [kcal/mol]     573.31479036 [kJ/mol]
  Total SAPT0                     218.01180059 [mEh]     136.80447027 [kcal/mol]     572.38990360 [kJ/mol]
  Total SAPT2                     218.48169353 [mEh]     137.09933254 [kcal/mol]     573.62360733 [kJ/mol]
  Total SAPT2+                    218.44592680 [mEh]     137.07688858 [kcal/mol]     573.52970181 [kJ/mol]

  Special recipe for scaled SAPT0 (see Manual):
    Electrostatics sSAPT0         219.78218437 [mEh]     137.91540286 [kcal/mol]     577.03804556 [kJ/mol]
    Exchange sSAPT0                 5.07948278 [mEh]       3.18742356 [kcal/mol]      13.33618019 [kJ/mol]
    Induction sSAPT0               -6.48434688 [mEh]      -4.06898910 [kcal/mol]     -17.02465040 [kJ/mol]
    Dispersion sSAPT0              -0.35214728 [mEh]      -0.22097575 [kcal/mol]      -0.92456255 [kJ/mol]
  Total sSAPT0                    218.02517298 [mEh]     136.81286157 [kcal/mol]     572.42501280 [kJ/mol]
  --------------------------------------------------------------------------------------------------------

*** Psi4 exiting successfully. Buy a developer a beer!
