                               Psi4 1.9 release

  ==> Input File <==

--------------------------------------------------------------------------
MEMORY 60 GB

molecule dimer {
1 1
Na     0.000000     0.000000     0.000000
--
1 1
K      2.640000     0.000000     0.000000

units ang
no_reorient
no_com
symmetry c1
}

set {
basis        aug-cc-pVTZ
scf_type     df
}

energy("sapt2+")
--------------------------------------------------------------------------

  //              Dimer HF             //
    Molecular point group: c1
  Charge       = 2
  Multiplicity = 1
  Basis Set: AUG-CC-PVTZ
    Blend: AUG-CC-PVTZ
  Basis Set: (AUG-CC-PVTZ AUX)
    Blend: DEF2-UNIVERSAL-JKFIT
  @DF-RHF Final Energy:  -760.49654406881086
    Total Energy =                       -760.4965440688108629
 Dipole X            :        -89.6109226           94.7886625            5.1777398
 Dipole Y            :         -0.0000000            0.0000000           -0.0000000
 Dipole Z            :         -0.0000000            0.0000000           -0.0000000
 Magnitude           :                                                    5.1777398
  //            Monomer A HF           //
    Molecular point group: c1
  Multiplicity = 1
  Basis Set: AUG-CC-PVTZ
    Blend: AUG-CC-PVTZ
  Basis Set: (AUG-CC-PVTZ AUX)
    Blend: DEF2-UNIVERSAL-JKFIT
  @DF-RHF Final Energy:  -161.67604248533445
    Total Energy =                       -161.6760424853344489
  //            Monomer B HF           //
    Molecular point group: c1

    Geometry (in Angstrom), charge = 1, multiplicity = 1:

       Center              X                  Y                   Z               Mass
    ------------   -----------------  -----------------  -----------------  -----------------
      Gh(NA)          0.000000000000     0.000000000000     0.000000000000    22.989769282000
         K            2.640000000000     0.000000000000     0.000000000000    38.963706486400

  Charge       = 1
  Multiplicity = 1
  Basis Set: AUG-CC-PVTZ
    Blend: AUG-CC-PVTZ
  Basis Set: (AUG-CC-PVTZ AUX)
    Blend: DEF2-UNIVERSAL-JKFIT

    Orbital Energies [Eh]
    ---------------------

    Doubly Occupied:

       1A   -133.753421     2A    -14.708935     3A    -11.739005
       4A    -11.739002     5A    -11.739002     6A     -1.964224
       7A     -1.170897     8A     -1.170840     9A     -1.170840

  @DF-RHF Final Energy:  -599.01751006625977

   => Energetics <=

    Nuclear Repulsion Energy =              0.0000000000000000
    One-Electron Energy =                -819.7226846243036107
    Two-Electron Energy =                 220.7051745580438933
    Total Energy =                       -599.0175100662597742
 Dipole X            :        -89.8002169           94.7886625            4.9884455
 Dipole Y            :          0.0000000            0.0000000            0.0000000
 Dipole Z            :         -0.0000000            0.0000000           -0.0000000
 Magnitude           :                                                    4.9884455

    SAPT Results
  --------------------------------------------------------------------------------------------------------
    Electrostatics                200.64083489 [mEh]     125.90402472 [kcal/mol]     526.78243942 [kJ/mol]
      Elst10,r                    200.28939197 [mEh]     125.68349096 [kcal/mol]     525.85972616 [kJ/mol]
      Elst12,r                      0.35144292 [mEh]       0.22053376 [kcal/mol]       0.92271326 [kJ/mol]

    Exchange                        1.60201682 [mEh]       1.00528073 [kcal/mol]       4.20609459 [kJ/mol]
      Exch10                        1.47955308 [mEh]       0.92843357 [kcal/mol]       3.88456607 [kJ/mol]
      Exch10(S^2)                   1.47878669 [mEh]       0.92795266 [kcal/mol]       3.88255392 [kJ/mol]
      Exch11(S^2)                  -0.01410553 [mEh]      -0.00885135 [kcal/mol]      -0.03703405 [kJ/mol]
      Exch12(S^2)                   0.13656927 [mEh]       0.08569851 [kcal/mol]       0.35856258 [kJ/mol]

    Induction                      -4.92897595 [mEh]      -3.09297910 [kcal/mol]     -12.94102457 [kJ/mol]
      Ind20,r                      -5.63711790 [mEh]      -3.53734489 [kcal/mol]     -14.80025101 [kJ/mol]
      Ind22                        -0.19571124 [mEh]      -0.12281066 [kcal/mol]      -0.51383978 [kJ/mol]
      Exch-Ind20,r                  0.78337763 [mEh]       0.49157688 [kcal/mol]       2.05675767 [kJ/mol]
      Exch-Ind22                    0.02719755 [mEh]       0.01706672 [kcal/mol]       0.07140716 [kJ/mol]
      delta HF,r (2)                0.09327802 [mEh]       0.05853284 [kcal/mol]       0.24490140 [kJ/mol]

    Dispersion                     -0.22606343 [mEh]      -0.14185695 [kcal/mol]      -0.59352947 [kJ/mol]
      Disp20                       -0.21226622 [mEh]      -0.13319906 [kcal/mol]      -0.55730488 [kJ/mol]
      Disp21                       -0.00011357 [mEh]      -0.00007127 [kcal/mol]      -0.00029818 [kJ/mol]
      Disp22 (SDQ)                 -0.01037480 [mEh]      -0.00651029 [kcal/mol]      -0.02723904 [kJ/mol]
      Disp22 (T)                   -0.01016824 [mEh]      -0.00638067 [kcal/mol]      -0.02669671 [kJ/mol]
      Est. Disp22 (T)              -0.01126980 [mEh]      -0.00707191 [kcal/mol]      -0.02958885 [kJ/mol]
      Exch-Disp20                   0.00796095 [mEh]       0.00499557 [kcal/mol]       0.02090148 [kJ/mol]

  Total HF                        197.00848278 [mEh]     123.62468936 [kcal/mol]     517.24570029 [kJ/mol]
  Total SAPT0                     196.80417752 [mEh]     123.49648587 [kcal/mol]     516.70929689 [kJ/mol]
  Total SAPT2                     197.10957050 [mEh]     123.68812286 [kcal/mol]     517.51110605 [kJ/mol]
  Total SAPT2+                    197.08781233 [mEh]     123.67446940 [kcal/mol]     517.45397998 [kJ/mol]

  Special recipe for scaled SAPT0 (see Manual):
    Electrostatics sSAPT0         200.28939197 [mEh]     125.68349096 [kcal/mol]     525.85972616 [kJ/mol]
    Exchange sSAPT0                 1.47955308 [mEh]       0.92843357 [kcal/mol]       3.88456607 [kJ/mol]
    Induction sSAPT0               -4.75924366 [mEh]      -2.98647049 [kcal/mol]     -12.49539251 [kJ/mol]
    Dispersion sSAPT0              -0.20429288 [mEh]      -0.12819572 [kcal/mol]      -0.53637088 [kJ/mol]
  Total sSAPT0                    196.80540850 [mEh]     123.49725833 [kcal/mol]     516.71252884 [kJ/mol]
  --------------------------------------------------------------------------------------------------------

*** Psi4 exiting successfully. Buy a developer a beer!
