                               Psi4 1.9 release

  ==> Input File <==

--------------------------------------------------------------------------
MEMORY 60 GB

molecule dimer {
1 1
Na     0.000000     0.000000     0.000000
--
1 1
K      4.800000     0.000000     0.000000

units ang
no_reorient
no_com
symmetry c1
}

set {
basis        aug-cc-pVTZ
scf_type     df
}

energy("sapt2+")
--------------------------------------------------------------------------

  //              Dimer HF             //
    Molecular point group: c1
  Charge       = 2
  Multiplicity = 1
  Basis Set: AUG-CC-PVTZ
    Blend: AUG-CC-PVTZ
  Basis Set: (AUG-CC-PVTZ AUX)
    Blend: DEF2-UNIVERSAL-JKFIT
  @DF-RHF Final Energy:  -760.58369734242103
    Total Energy =                       -760.5836973424210328
 Dipole X            :       -163.2162528          172.3430226            9.1267699
 Dipole Y            :         -0.0000000            0.0000000           -0.0000000
 Dipole Z            :         -0.0000000            0.0000000           -0.0000000
 Magnitude           :                                                    9.1267699
  //            Monomer A HF           //
    Molecular point group: c1
  Multiplicity = 1
  Basis Set: AUG-CC-PVTZ
    Blend: AUG-CC-PVTZ
  Basis Set: (AUG-CC-PVTZ AUX)
    Blend: DEF2-UNIVERSAL-JKFIT
  @DF-RHF Final Energy:  -161.67602716914482
    Total Energy =                       -161.6760271691448452
  //            Monomer B HF           //
    Molecular point group: c1

    Geometry (in Angstrom), charge = 1, multiplicity = 1:

       Center              X                  Y                   Z               Mass
    ------------   -----------------  -----------------  -----------------  -----------------
      Gh(NA)          0.000000000000     0.000000000000     0.000000000000    22.989769282000
         K            4.800000000000     0.000000000000     0.000000000000    38.963706486400

  Charge       = 1
  Multiplicity = 1
  Basis Set: AUG-CC-PVTZ
    Blend: AUG-CC-PVTZ
  Basis Set: (AUG-CC-PVTZ AUX)
    Blend: DEF2-UNIVERSAL-JKFIT

    Orbital Energies [Eh]
    ---------------------

    Doubly Occupied:

       1A   -133.753876     2A    -14.709301     3A    -11.739367
       4A    -11.739363     5A    -11.739363     6A     -1.964404
       7A     -1.171000     8A     -1.170972     9A     -1.170972

  @DF-RHF Final Energy:  -599.01750689196615

   => Energetics <=

    Nuclear Repulsion Energy =              0.0000000000000000
    One-Electron Energy =                -819.7177778621671678
    Two-Electron Energy =                 220.7002709702010179
    Total Energy =                       -599.0175068919661499
 Dipole X            :       -163.2726147          172.3430226            9.0704080
 Dipole Y            :         -0.0000000            0.0000000           -0.0000000
 Dipole Z            :         -0.0000000            0.0000000           -0.0000000
 Magnitude           :                                                    9.0704080

    SAPT Results
  --------------------------------------------------------------------------------------------------------
    Electrostatics                110.32891680 [mEh]      69.23244052 [kcal/mol]     289.66853115 [kJ/mol]
      Elst10,r                    110.25134493 [mEh]      69.18376344 [kcal/mol]     289.46486624 [kJ/mol]
      Elst12,r                      0.07757187 [mEh]       0.04867708 [kcal/mol]       0.20366491 [kJ/mol]

    Exchange                       -0.00030647 [mEh]      -0.00019231 [kcal/mol]      -0.00080464 [kJ/mol]
      Exch10                        0.00001524 [mEh]       0.00000957 [kcal/mol]       0.00004002 [kJ/mol]
      Exch10(S^2)                   0.00001524 [mEh]       0.00000957 [kcal/mol]       0.00004002 [kJ/mol]
      Exch11(S^2)                  -0.00000300 [mEh]      -0.00000188 [kcal/mol]      -0.00000788 [kJ/mol]
      Exch12(S^2)                  -0.00031871 [mEh]      -0.00019999 [kcal/mol]      -0.00083678 [kJ/mol]

    Induction                      -0.42382607 [mEh]      -0.26595487 [kcal/mol]      -1.11275519 [kJ/mol]
      Ind20,r                      -0.41348360 [mEh]      -0.25946488 [kcal/mol]      -1.08560104 [kJ/mol]
      Ind22                        -0.00918484 [mEh]      -0.00576358 [kcal/mol]      -0.02411480 [kJ/mol]
      Exch-Ind20,r                  0.00001171 [mEh]       0.00000735 [kcal/mol]       0.00003073 [kJ/mol]
      Exch-Ind22                    0.00000026 [mEh]       0.00000016 [kcal/mol]       0.00000068 [kJ/mol]
      delta HF,r (2)               -0.00116959 [mEh]      -0.00073393 [kcal/mol]      -0.00307076 [kJ/mol]

    Dispersion                     -0.00464457 [mEh]      -0.00291451 [kcal/mol]      -0.01219433 [kJ/mol]
      Disp20                       -0.00434616 [mEh]      -0.00272726 [kcal/mol]      -0.01141085 [kJ/mol]
      Disp21                        0.00015499 [mEh]       0.00009726 [kcal/mol]       0.00040693 [kJ/mol]
      Disp22 (SDQ)                 -0.00020867 [mEh]      -0.00013094 [kcal/mol]      -0.00054787 [kJ/mol]
      Disp22 (T)                   -0.00023775 [mEh]      -0.00014919 [kcal/mol]      -0.00062420 [kJ/mol]
      Est. Disp22 (T)              -0.00024586 [mEh]      -0.00015428 [kcal/mol]      -0.00064550 [kJ/mol]
      Exch-Disp20                   0.00000113 [mEh]       0.00000071 [kcal/mol]       0.00000297 [kJ/mol]

  Total HF                        109.83671869 [mEh]      68.92358155 [kcal/mol]     288.37626519 [kJ/mol]
  Total SAPT0                     109.83237366 [mEh]      68.92085500 [kcal/mol]     288.36485731 [kJ/mol]
  Total SAPT2                     109.90043923 [mEh]      68.96356679 [kcal/mol]     288.54356344 [kJ/mol]
  Total SAPT2+                    109.90013969 [mEh]      68.96337882 [kcal/mol]     288.54277699 [kJ/mol]

  Special recipe for scaled SAPT0 (see Manual):
    Electrostatics sSAPT0         110.25134493 [mEh]      69.18376344 [kcal/mol]     289.46486624 [kJ/mol]
    Exchange sSAPT0                 0.00001524 [mEh]       0.00000957 [kcal/mol]       0.00004002 [kJ/mol]
    Induction sSAPT0               -0.41464148 [mEh]      -0.26019146 [kcal/mol]      -1.08864107 [kJ/mol]
    Dispersion sSAPT0              -0.00434503 [mEh]      -0.00272655 [kcal/mol]      -0.01140789 [kJ/mol]
  Total sSAPT0                    109.83237366 [mEh]      68.92085500 [kcal/mol]     288.36485731 [kJ/mol]
  --------------------------------------------------------------------------------------------------------

*** Psi4 exiting successfully. Buy a developer a beer!
