                               Psi4 1.9 release

  ==> Input File <==

--------------------------------------------------------------------------
MEMORY 60 GB

molecule dimer {
1 1
Na     0.000000     0.000000     0.000000
--
1 1
K      3.120000     0.000000     0.000000

units ang
no_reorient
no_com
symmetry c1
}

set {
basis        aug-cc-pVTZ
scf_type     df
}

energy("sapt2+")
--------------------------------------------------------------------------

  //              Dimer HF             //
    Molecular point group: c1
  Charge       = 2
  Multiplicity = 1
  Basis Set: AUG-CC-PVTZ
    Blend: AUG-CC-PVTZ
  Basis Set: (AUG-CC-PVTZ AUX)
    Blend: DEF2-UNIVERSAL-JKFIT
  @DF-RHF Final Energy:  -760.52629018785308
    Total Energy =                       -760.5262901878530784
 Dipole X            :       -105.9889677          112.0229647            6.0339970
 Dipole Y            :          0.0000000            0.0000000            0.0000000
 Dipole Z            :          0.0000000            0.0000000            0.0000000
 Magnitude           :                                                    6.0339970
  //            Monomer A HF           //
    Molecular point group: c1
  Multiplicity = 1
  Basis Set: AUG-CC-PVTZ
    Blend: AUG-CC-PVTZ
  Basis Set: (AUG-CC-PVTZ AUX)
    Blend: DEF2-UNIVERSAL-JKFIT
  @DF-RHF Final Energy:  -161.67603548431433
    Total Energy =                       -161.6760354843143261
  //            Monomer B HF           //
    Molecular point group: c1

    Geometry (in Angstrom), charge = 1, multiplicity = 1:

       Center              X                  Y                   Z               Mass
    ------------   -----------------  -----------------  -----------------  -----------------
      Gh(NA)          0.000000000000     0.000000000000     0.000000000000    22.989769282000
         K            3.120000000000     0.000000000000     0.000000000000    38.963706486400

  Charge       = 1
  Multiplicity = 1
  Basis Set: AUG-CC-PVTZ
    Blend: AUG-CC-PVTZ
  Basis Set: (AUG-CC-PVTZ AUX)
    Blend: DEF2-UNIVERSAL-JKFIT

    Orbital Energies [Eh]
    ---------------------

    Doubly Occupied:

       1A   -133.753622     2A    -14.709094     3A    -11.739164
       4A    -11.739161     5A    -11.739161     6A     -1.964295
       7A     -1.170938     8A     -1.170899     9A     -1.170899

  @DF-RHF Final Energy:  -599.01750899560273

   => Energetics <=

    Nuclear Repulsion Energy =              0.0000000000000000
    One-Electron Energy =                -819.7205523543234449
    Two-Electron Energy =                 220.7030433587207199
    Total Energy =                       -599.0175089956027250
 Dipole X            :       -106.1273382          112.0229647            5.8956265
 Dipole Y            :         -0.0000000            0.0000000           -0.0000000
 Dipole Z            :         -0.0000000            0.0000000           -0.0000000
 Magnitude           :                                                    5.8956265

    SAPT Results
  --------------------------------------------------------------------------------------------------------
    Electrostatics                169.83319329 [mEh]     106.57193775 [kcal/mol]     445.89698756 [kJ/mol]
      Elst10,r                    169.62230508 [mEh]     106.43960340 [kcal/mol]     445.34330063 [kJ/mol]
      Elst12,r                      0.21088822 [mEh]       0.13233435 [kcal/mol]       0.55368694 [kJ/mol]

    Exchange                        0.12251693 [mEh]       0.07688054 [kcal/mol]       0.32166816 [kJ/mol]
      Exch10                        0.11930997 [mEh]       0.07486813 [kcal/mol]       0.31324828 [kJ/mol]
      Exch10(S^2)                   0.11930413 [mEh]       0.07486447 [kcal/mol]       0.31323295 [kJ/mol]
      Exch11(S^2)                  -0.00087475 [mEh]      -0.00054891 [kcal/mol]      -0.00229666 [kJ/mol]
      Exch12(S^2)                   0.00408172 [mEh]       0.00256132 [kcal/mol]       0.01071654 [kJ/mol]

    Induction                      -2.54375568 [mEh]      -1.59623079 [kcal/mol]      -6.67862962 [kJ/mol]
      Ind20,r                      -2.52945164 [mEh]      -1.58725487 [kcal/mol]      -6.64107437 [kJ/mol]
      Ind22                        -0.05791016 [mEh]      -0.03633917 [kcal/mol]      -0.15204310 [kJ/mol]
      Exch-Ind20,r                  0.06453374 [mEh]       0.04049553 [kcal/mol]       0.16943331 [kJ/mol]
      Exch-Ind22                    0.00147746 [mEh]       0.00092712 [kcal/mol]       0.00387907 [kJ/mol]
      delta HF,r (2)               -0.02240508 [mEh]      -0.01405940 [kcal/mol]      -0.05882453 [kJ/mol]

    Dispersion                     -0.07854120 [mEh]      -0.04928535 [kcal/mol]      -0.20620989 [kJ/mol]
      Disp20                       -0.07235933 [mEh]      -0.04540617 [kcal/mol]      -0.18997940 [kJ/mol]
      Disp21                        0.00050655 [mEh]       0.00031786 [kcal/mol]       0.00132994 [kJ/mol]
      Disp22 (SDQ)                 -0.00371906 [mEh]      -0.00233374 [kcal/mol]      -0.00976439 [kJ/mol]
      Disp22 (T)                   -0.00352728 [mEh]      -0.00221340 [kcal/mol]      -0.00926088 [kJ/mol]
      Est. Disp22 (T)              -0.00383839 [mEh]      -0.00240863 [kcal/mol]      -0.01007770 [kJ/mol]
      Exch-Disp20                   0.00086904 [mEh]       0.00054533 [kcal/mol]       0.00228166 [kJ/mol]

  Total HF                        167.25429206 [mEh]     104.95365280 [kcal/mol]     439.12608332 [kJ/mol]
  Total SAPT0                     167.18280177 [mEh]     104.90879196 [kcal/mol]     438.93838557 [kJ/mol]
  Total SAPT2                     167.34046425 [mEh]     105.00772666 [kcal/mol]     439.35232836 [kJ/mol]
  Total SAPT2+                    167.33341335 [mEh]     105.00330216 [kcal/mol]     439.33381622 [kJ/mol]

  Special recipe for scaled SAPT0 (see Manual):
    Electrostatics sSAPT0         169.62230508 [mEh]     106.43960340 [kcal/mol]     445.34330063 [kJ/mol]
    Exchange sSAPT0                 0.11930997 [mEh]       0.07486813 [kcal/mol]       0.31324828 [kJ/mol]
    Induction sSAPT0               -2.48731351 [mEh]      -1.56081279 [kcal/mol]      -6.53044072 [kJ/mol]
    Dispersion sSAPT0              -0.07149017 [mEh]      -0.04486076 [kcal/mol]      -0.18769741 [kJ/mol]
  Total sSAPT0                    167.18281137 [mEh]     104.90879799 [kcal/mol]     438.93841078 [kJ/mol]
  --------------------------------------------------------------------------------------------------------

*** Psi4 exiting successfully. Buy a developer a beer!
