                               Psi4 1.9 release

  ==> Input File <==

--------------------------------------------------------------------------
MEMORY 60 GB

molecule dimer {
1 1
Na     0.000000     0.000000     0.000000
--
1 1
K      3.360000     0.000000     0.000000

units ang
no_reorient
no_com
symmetry c1
}

set {
basis        aug-cc-pVTZ
scf_type     df
}

energy("sapt2+")
--------------------------------------------------------------------------

  //              Dimer HF             //
    Molecular point group: c1
  Charge       = 2
  Multiplicity = 1
  Basis Set: AUG-CC-PVTZ
    Blend: AUG-CC-PVTZ
  Basis Set: (AUG-CC-PVTZ AUX)
    Blend: DEF2-UNIVERSAL-JKFIT
  @DF-RHF Final Energy:  -760.53782111227349
    Total Energy =                       -760.5378211122734911
 Dipole X            :       -114.1725044          120.6401158            6.4676114
 Dipole Y            :         -0.0000000            0.0000000           -0.0000000
 Dipole Z            :         -0.0000000            0.0000000           -0.0000000
 Magnitude           :                                                    6.4676114
  //            Monomer A HF           //
    Molecular point group: c1
  Multiplicity = 1
  Basis Set: AUG-CC-PVTZ
    Blend: AUG-CC-PVTZ
  Basis Set: (AUG-CC-PVTZ AUX)
    Blend: DEF2-UNIVERSAL-JKFIT
  @DF-RHF Final Energy:  -161.67603349305443
    Total Energy =                       -161.6760334930544047
  //            Monomer B HF           //
    Molecular point group: c1

    Geometry (in Angstrom), charge = 1, multiplicity = 1:

       Center              X                  Y                   Z               Mass
    ------------   -----------------  -----------------  -----------------  -----------------
      Gh(NA)          0.000000000000     0.000000000000     0.000000000000    22.989769282000
         K            3.360000000000     0.000000000000     0.000000000000    38.963706486400

  Charge       = 1
  Multiplicity = 1
  Basis Set: AUG-CC-PVTZ
    Blend: AUG-CC-PVTZ
  Basis Set: (AUG-CC-PVTZ AUX)
    Blend: DEF2-UNIVERSAL-JKFIT

    Orbital Energies [Eh]
    ---------------------

    Doubly Occupied:

       1A   -133.753677     2A    -14.709139     3A    -11.739209
       4A    -11.739205     5A    -11.739205     6A     -1.964319
       7A     -1.170950     8A     -1.170916     9A     -1.170916

  @DF-RHF Final Energy:  -599.01750848864742

   => Energetics <=

    Nuclear Repulsion Energy =              0.0000000000000000
    One-Electron Energy =                -819.7199434662975364
    Two-Electron Energy =                 220.7024349776501140
    Total Energy =                       -599.0175084886474224
 Dipole X            :       -114.2909284          120.6401158            6.3491874
 Dipole Y            :         -0.0000000            0.0000000           -0.0000000
 Dipole Z            :          0.0000000            0.0000000            0.0000000
 Magnitude           :                                                    6.3491874

    SAPT Results
  --------------------------------------------------------------------------------------------------------
    Electrostatics                157.67767008 [mEh]      98.94423178 [kcal/mol]     413.98266576 [kJ/mol]
      Elst10,r                    157.51112839 [mEh]      98.83972529 [kcal/mol]     413.54541061 [kJ/mol]
      Elst12,r                      0.16654169 [mEh]       0.10450649 [kcal/mol]       0.43725515 [kJ/mol]

    Exchange                        0.02961785 [mEh]       0.01858548 [kcal/mol]       0.07776165 [kJ/mol]
      Exch10                        0.03335021 [mEh]       0.02092757 [kcal/mol]       0.08756097 [kJ/mol]
      Exch10(S^2)                   0.03334972 [mEh]       0.02092727 [kcal/mol]       0.08755968 [kJ/mol]
      Exch11(S^2)                  -0.00017899 [mEh]      -0.00011232 [kcal/mol]      -0.00046993 [kJ/mol]
      Exch12(S^2)                  -0.00355338 [mEh]      -0.00222978 [kcal/mol]      -0.00932939 [kJ/mol]

    Induction                      -1.86336236 [mEh]      -1.16927753 [kcal/mol]      -4.89225720 [kJ/mol]
      Ind20,r                      -1.82323484 [mEh]      -1.14409714 [kcal/mol]      -4.78690242 [kJ/mol]
      Ind22                        -0.04015178 [mEh]      -0.02519562 [kcal/mol]      -0.10541849 [kJ/mol]
      Exch-Ind20,r                  0.01809960 [mEh]       0.01135767 [kcal/mol]       0.04752049 [kJ/mol]
      Exch-Ind22                    0.00039859 [mEh]       0.00025012 [kcal/mol]       0.00104651 [kJ/mol]
      delta HF,r (2)               -0.01847393 [mEh]      -0.01159256 [kcal/mol]      -0.04850329 [kJ/mol]

    Dispersion                     -0.04785800 [mEh]      -0.03003135 [kcal/mol]      -0.12565116 [kJ/mol]
      Disp20                       -0.04421431 [mEh]      -0.02774490 [kcal/mol]      -0.11608466 [kJ/mol]
      Disp21                        0.00061317 [mEh]       0.00038477 [kcal/mol]       0.00160987 [kJ/mol]
      Disp22 (SDQ)                 -0.00224052 [mEh]      -0.00140595 [kcal/mol]      -0.00588249 [kJ/mol]
      Disp22 (T)                   -0.00216917 [mEh]      -0.00136118 [kcal/mol]      -0.00569516 [kJ/mol]
      Est. Disp22 (T)              -0.00235043 [mEh]      -0.00147492 [kcal/mol]      -0.00617105 [kJ/mol]
      Exch-Disp20                   0.00033410 [mEh]       0.00020965 [kcal/mol]       0.00087717 [kJ/mol]

  Total HF                        155.72086943 [mEh]      97.71632083 [kcal/mol]     408.84508636 [kJ/mol]
  Total SAPT0                     155.67698921 [mEh]      97.68878558 [kcal/mol]     408.72987886 [kJ/mol]
  Total SAPT2                     155.80004535 [mEh]      97.76600447 [kcal/mol]     409.05296272 [kJ/mol]
  Total SAPT2+                    155.79606757 [mEh]      97.76350838 [kcal/mol]     409.04251904 [kJ/mol]

  Special recipe for scaled SAPT0 (see Manual):
    Electrostatics sSAPT0         157.51112839 [mEh]      98.83972529 [kcal/mol]     413.54541061 [kJ/mol]
    Exchange sSAPT0                 0.03335021 [mEh]       0.02092757 [kcal/mol]       0.08756097 [kJ/mol]
    Induction sSAPT0               -1.82360837 [mEh]      -1.14433153 [kcal/mol]      -4.78788313 [kJ/mol]
    Dispersion sSAPT0              -0.04388020 [mEh]      -0.02753524 [kcal/mol]      -0.11520746 [kJ/mol]
  Total sSAPT0                    155.67699003 [mEh]      97.68878609 [kcal/mol]     408.72988100 [kJ/mol]
  --------------------------------------------------------------------------------------------------------

*** Psi4 exiting successfully. Buy a developer a beer!
