                               Psi4 1.9 release

  ==> Input File <==

--------------------------------------------------------------------------
MEMORY 60 GB

molecule dimer {
1 1
Na     0.000000     0.000000     0.000000
--
1 1
K      3.600000     0.000000     0.000000

units ang
no_reorient
no_com
symmetry c1
}

set {
basis        aug-cc-pVTZ
scf_type     df
}

energy("sapt2+")
--------------------------------------------------------------------------

  //              Dimer HF             //
    Molecular point group: c1
  Charge       = 2
  Multiplicity = 1
  Basis Set: AUG-CC-PVTZ
    Blend: AUG-CC-PVTZ
  Basis Set: (AUG-CC-PVTZ AUX)
    Blend: DEF2-UNIVERSAL-JKFIT
  @DF-RHF Final Energy:  -760.54788221855335
    Total Energy =                       -760.5478822185534682
 Dipole X            :       -122.3525453          129.2572670            6.9047217
 Dipole Y            :          0.0000000            0.0000000            0.0000000
 Dipole Z            :         -0.0000000            0.0000000           -0.0000000
 Magnitude           :                                                    6.9047217
  //            Monomer A HF           //
    Molecular point group: c1
  Multiplicity = 1
  Basis Set: AUG-CC-PVTZ
    Blend: AUG-CC-PVTZ
  Basis Set: (AUG-CC-PVTZ AUX)
    Blend: DEF2-UNIVERSAL-JKFIT
  @DF-RHF Final Energy:  -161.67603207643299
    Total Energy =                       -161.6760320764329890
  //            Monomer B HF           //
    Molecular point group: c1

    Geometry (in Angstrom), charge = 1, multiplicity = 1:

       Center              X                  Y                   Z               Mass
    ------------   -----------------  -----------------  -----------------  -----------------
      Gh(NA)          0.000000000000     0.000000000000     0.000000000000    22.989769282000
         K            3.600000000000     0.000000000000     0.000000000000    38.963706486400

  Charge       = 1
  Multiplicity = 1
  Basis Set: AUG-CC-PVTZ
    Blend: AUG-CC-PVTZ
  Basis Set: (AUG-CC-PVTZ AUX)
    Blend: DEF2-UNIVERSAL-JKFIT

    Orbital Energies [Eh]
    ---------------------

    Doubly Occupied:

       1A   -133.753716     2A    -14.709173     3A    -11.739241
       4A    -11.739236     5A    -11.739236     6A     -1.964340
       7A     -1.170958     8A     -1.170928     9A     -1.170928

  @DF-RHF Final Energy:  -599.01750802638014

   => Energetics <=

    Nuclear Repulsion Energy =              0.0000000000000000
    One-Electron Energy =                -819.7195014894520000
    Two-Electron Energy =                 220.7019934630718296
    Total Energy =                       -599.0175080263801419
 Dipole X            :       -122.4545210          129.2572670            6.8027460
 Dipole Y            :          0.0000000            0.0000000            0.0000000
 Dipole Z            :          0.0000000            0.0000000            0.0000000
 Magnitude           :                                                    6.8027460

    SAPT Results
  --------------------------------------------------------------------------------------------------------
    Electrostatics                147.15488129 [mEh]      92.34108212 [kcal/mol]     386.35508761 [kJ/mol]
      Elst10,r                    147.00877605 [mEh]      92.24939970 [kcal/mol]     385.97148834 [kJ/mol]
      Elst12,r                      0.14610525 [mEh]       0.09168243 [kcal/mol]       0.38359927 [kJ/mol]

    Exchange                        0.00559939 [mEh]       0.00351367 [kcal/mol]       0.01470120 [kJ/mol]
      Exch10                        0.00931903 [mEh]       0.00584778 [kcal/mol]       0.02446712 [kJ/mol]
      Exch10(S^2)                   0.00931899 [mEh]       0.00584776 [kcal/mol]       0.02446701 [kJ/mol]
      Exch11(S^2)                  -0.00002500 [mEh]      -0.00001569 [kcal/mol]      -0.00006564 [kJ/mol]
      Exch12(S^2)                  -0.00369464 [mEh]      -0.00231842 [kcal/mol]      -0.00970028 [kJ/mol]

    Induction                      -1.38990097 [mEh]      -0.87217603 [kcal/mol]      -3.64918449 [kJ/mol]
      Ind20,r                      -1.35294932 [mEh]      -0.84898852 [kcal/mol]      -3.55216795 [kJ/mol]
      Ind22                        -0.02979805 [mEh]      -0.01869856 [kcal/mol]      -0.07823478 [kJ/mol]
      Exch-Ind20,r                  0.00489946 [mEh]       0.00307445 [kcal/mol]       0.01286352 [kJ/mol]
      Exch-Ind22                    0.00010791 [mEh]       0.00006771 [kcal/mol]       0.00028331 [kJ/mol]
      delta HF,r (2)               -0.01216096 [mEh]      -0.00763112 [kcal/mol]      -0.03192860 [kJ/mol]

    Dispersion                     -0.03004762 [mEh]      -0.01885517 [kcal/mol]      -0.07889002 [kJ/mol]
      Disp20                       -0.02787022 [mEh]      -0.01748883 [kcal/mol]      -0.07317325 [kJ/mol]
      Disp21                        0.00057876 [mEh]       0.00036318 [kcal/mol]       0.00151954 [kJ/mol]
      Disp22 (SDQ)                 -0.00138483 [mEh]      -0.00086899 [kcal/mol]      -0.00363586 [kJ/mol]
      Disp22 (T)                   -0.00140879 [mEh]      -0.00088403 [kcal/mol]      -0.00369879 [kJ/mol]
      Est. Disp22 (T)              -0.00151406 [mEh]      -0.00095009 [kcal/mol]      -0.00397516 [kJ/mol]
      Exch-Disp20                   0.00014272 [mEh]       0.00008956 [kcal/mol]       0.00037471 [kJ/mol]

  Total HF                        145.65788426 [mEh]      91.40170230 [kcal/mol]     382.42472244 [kJ/mol]
  Total SAPT0                     145.63015676 [mEh]      91.38430304 [kcal/mol]     382.35192390 [kJ/mol]
  Total SAPT2                     145.74285222 [mEh]      91.45502050 [kcal/mol]     382.64780578 [kJ/mol]
  Total SAPT2+                    145.74053209 [mEh]      91.45356460 [kcal/mol]     382.64171429 [kJ/mol]

  Special recipe for scaled SAPT0 (see Manual):
    Electrostatics sSAPT0         147.00877605 [mEh]      92.24939970 [kcal/mol]     385.97148834 [kJ/mol]
    Exchange sSAPT0                 0.00931903 [mEh]       0.00584778 [kcal/mol]       0.02446712 [kJ/mol]
    Induction sSAPT0               -1.36021082 [mEh]      -0.85354518 [kcal/mol]      -3.57123303 [kJ/mol]
    Dispersion sSAPT0              -0.02772750 [mEh]      -0.01739927 [kcal/mol]      -0.07279854 [kJ/mol]
  Total sSAPT0                    145.63015676 [mEh]      91.38430304 [kcal/mol]     382.35192390 [kJ/mol]
  --------------------------------------------------------------------------------------------------------

*** Psi4 exiting successfully. Buy a developer a beer!
