                               Psi4 1.9 release

  ==> Input File <==

--------------------------------------------------------------------------
MEMORY 60 GB

molecule dimer {
1 1
K      0.000000     0.000000     0.000000
--
1 1
K      3.864000     0.000000     0.000000

units ang
no_reorient
no_com
symmetry c1
}

set {
basis        aug-cc-pVTZ
scf_type     df
}

energy("sapt2+")
--------------------------------------------------------------------------

  //              Dimer HF             //
    Molecular point group: c1
  Charge       = 2
  Multiplicity = 1
  Basis Set: AUG-CC-PVTZ
    Blend: AUG-CC-PVTZ
  Basis Set: (AUG-CC-PVTZ AUX)
    Blend: DEF2-UNIVERSAL-JKFIT
  @DF-RHF Final Energy: -1197.89983304802900
    Total Energy =                      -1197.8998330480289951
 Dipole X            :       -131.4342315          138.7361332            7.3019017
 Dipole Y            :         -0.0000000            0.0000000           -0.0000000
 Dipole Z            :         -0.0000000            0.0000000           -0.0000000
 Magnitude           :                                                    7.3019017
  //            Monomer A HF           //
    Molecular point group: c1
  Multiplicity = 1
  Basis Set: AUG-CC-PVTZ
    Blend: AUG-CC-PVTZ
  Basis Set: (AUG-CC-PVTZ AUX)
    Blend: DEF2-UNIVERSAL-JKFIT
  @DF-RHF Final Energy:  -599.01750804372807
    Total Energy =                       -599.0175080437280712
  //            Monomer B HF           //
    Molecular point group: c1

    Geometry (in Angstrom), charge = 1, multiplicity = 1:

       Center              X                  Y                   Z               Mass
    ------------   -----------------  -----------------  -----------------  -----------------
      Gh(K)           0.000000000000     0.000000000000     0.000000000000    38.963706486400
         K            3.864000000000     0.000000000000     0.000000000000    38.963706486400

  Charge       = 1
  Multiplicity = 1
  Basis Set: AUG-CC-PVTZ
    Blend: AUG-CC-PVTZ
  Basis Set: (AUG-CC-PVTZ AUX)
    Blend: DEF2-UNIVERSAL-JKFIT

    Orbital Energies [Eh]
    ---------------------

    Doubly Occupied:

       1A   -133.753624     2A    -14.709106     3A    -11.739171
       4A    -11.739166     5A    -11.739166     6A     -1.964321
       7A     -1.170945     8A     -1.170901     9A     -1.170901

  @DF-RHF Final Energy:  -599.01750804375126

   => Energetics <=

    Nuclear Repulsion Energy =              0.0000000000000000
    One-Electron Energy =                -819.7204172756102025
    Two-Electron Energy =                 220.7029092318588823
    Total Energy =                       -599.0175080437513770
 Dipole X            :       -131.4344877          138.7361332            7.3016455
 Dipole Y            :          0.0000000            0.0000000            0.0000000
 Dipole Z            :          0.0000000            0.0000000            0.0000000
 Magnitude           :                                                    7.3016455

    SAPT Results
  --------------------------------------------------------------------------------------------------------
    Electrostatics                137.06749656 [mEh]      86.01115264 [kcal/mol]     359.87066264 [kJ/mol]
      Elst10,r                    136.95695117 [mEh]      85.94178436 [kcal/mol]     359.58042576 [kJ/mol]
      Elst12,r                      0.11054539 [mEh]       0.06936828 [kcal/mol]       0.29023688 [kJ/mol]

    Exchange                        0.01537271 [mEh]       0.00964652 [kcal/mol]       0.04036104 [kJ/mol]
      Exch10                        0.03765168 [mEh]       0.02362679 [kcal/mol]       0.09885448 [kJ/mol]
      Exch10(S^2)                   0.03765063 [mEh]       0.02362612 [kcal/mol]       0.09885171 [kJ/mol]
      Exch11(S^2)                   0.00121939 [mEh]       0.00076518 [kcal/mol]       0.00320152 [kJ/mol]
      Exch12(S^2)                  -0.02349837 [mEh]      -0.01474545 [kcal/mol]      -0.06169496 [kJ/mol]

    Induction                      -1.91465062 [mEh]      -1.20146140 [kcal/mol]      -5.02691451 [kJ/mol]
      Ind20,r                      -1.85645508 [mEh]      -1.16494315 [kcal/mol]      -4.87412213 [kJ/mol]
      Ind22                        -0.10372436 [mEh]      -0.06508802 [kcal/mol]      -0.27232828 [kJ/mol]
      Exch-Ind20,r                  0.01140364 [mEh]       0.00715589 [kcal/mol]       0.02994025 [kJ/mol]
      Exch-Ind22                    0.00063715 [mEh]       0.00039982 [kcal/mol]       0.00167283 [kJ/mol]
      delta HF,r (2)                0.03348803 [mEh]       0.02101406 [kcal/mol]       0.08792282 [kJ/mol]

    Dispersion                     -0.17231885 [mEh]      -0.10813171 [kcal/mol]      -0.45242307 [kJ/mol]
      Disp20                       -0.20690940 [mEh]      -0.12983761 [kcal/mol]      -0.54324055 [kJ/mol]
      Disp21                        0.04984473 [mEh]       0.03127804 [kcal/mol]       0.13086731 [kJ/mol]
      Disp22 (SDQ)                 -0.00429866 [mEh]      -0.00269745 [kcal/mol]      -0.01128612 [kJ/mol]
      Disp22 (T)                   -0.01155386 [mEh]      -0.00725016 [kcal/mol]      -0.03033466 [kJ/mol]
      Est. Disp22 (T)              -0.01185221 [mEh]      -0.00743737 [kcal/mol]      -0.03111797 [kJ/mol]
      Exch-Disp20                   0.00089669 [mEh]       0.00056268 [kcal/mol]       0.00235427 [kJ/mol]

  Total HF                        135.18303945 [mEh]      84.82863795 [kcal/mol]     354.92302118 [kJ/mol]
  Total SAPT0                     134.97702675 [mEh]      84.69936303 [kcal/mol]     354.38213490 [kJ/mol]
  Total SAPT2                     134.96220595 [mEh]      84.69006283 [kcal/mol]     354.34322289 [kJ/mol]
  Total SAPT2+                    134.99589980 [mEh]      84.71120605 [kcal/mol]     354.43168611 [kJ/mol]

  Special recipe for scaled SAPT0 (see Manual):
    Electrostatics sSAPT0         136.95695117 [mEh]      85.94178436 [kcal/mol]     359.58042576 [kJ/mol]
    Exchange sSAPT0                 0.03765168 [mEh]       0.02362679 [kcal/mol]       0.09885448 [kJ/mol]
    Induction sSAPT0               -1.81156244 [mEh]      -1.13677260 [kcal/mol]      -4.75625654 [kJ/mol]
    Dispersion sSAPT0              -0.20601263 [mEh]      -0.12927488 [kcal/mol]      -0.54088608 [kJ/mol]
  Total sSAPT0                    134.97702778 [mEh]      84.69936367 [kcal/mol]     354.38213761 [kJ/mol]
  --------------------------------------------------------------------------------------------------------

*** Psi4 exiting successfully. Buy a developer a beer!
