                               Psi4 1.9 release

  ==> Input File <==

--------------------------------------------------------------------------
MEMORY 60 GB

molecule dimer {
1 1
K      0.000000     0.000000     0.000000
--
1 1
K      5.520000     0.000000     0.000000

units ang
no_reorient
no_com
symmetry c1
}

set {
basis        aug-cc-pVTZ
scf_type     df
}

energy("sapt2+")
--------------------------------------------------------------------------

  //              Dimer HF             //
    Molecular point group: c1
  Charge       = 2
  Multiplicity = 1
  Basis Set: AUG-CC-PVTZ
    Blend: AUG-CC-PVTZ
  Basis Set: (AUG-CC-PVTZ AUX)
    Blend: DEF2-UNIVERSAL-JKFIT
  @DF-RHF Final Energy: -1197.93956867399788
    Total Energy =                      -1197.9395686739976554
 Dipole X            :       -187.7631878          198.1944760           10.4312882
 Dipole Y            :         -0.0000000            0.0000000           -0.0000000
 Dipole Z            :         -0.0000000            0.0000000           -0.0000000
 Magnitude           :                                                   10.4312882
  //            Monomer A HF           //
    Molecular point group: c1
  Multiplicity = 1
  Basis Set: AUG-CC-PVTZ
    Blend: AUG-CC-PVTZ
  Basis Set: (AUG-CC-PVTZ AUX)
    Blend: DEF2-UNIVERSAL-JKFIT
  @DF-RHF Final Energy:  -599.01750648511165
    Total Energy =                       -599.0175064851115394
  //            Monomer B HF           //
    Molecular point group: c1

    Geometry (in Angstrom), charge = 1, multiplicity = 1:

       Center              X                  Y                   Z               Mass
    ------------   -----------------  -----------------  -----------------  -----------------
      Gh(K)           0.000000000000     0.000000000000     0.000000000000    38.963706486400
         K            5.520000000000     0.000000000000     0.000000000000    38.963706486400

  Charge       = 1
  Multiplicity = 1
  Basis Set: AUG-CC-PVTZ
    Blend: AUG-CC-PVTZ
  Basis Set: (AUG-CC-PVTZ AUX)
    Blend: DEF2-UNIVERSAL-JKFIT

    Orbital Energies [Eh]
    ---------------------

    Doubly Occupied:

       1A   -133.753880     2A    -14.709310     3A    -11.739373
       4A    -11.739371     5A    -11.739371     6A     -1.964415
       7A     -1.170999     8A     -1.170981     9A     -1.170981

  @DF-RHF Final Energy:  -599.01750648512609

   => Energetics <=

    Nuclear Repulsion Energy =              0.0000000000000000
    One-Electron Energy =                -819.7176482609671666
    Two-Electron Energy =                 220.7001417758411037
    Total Energy =                       -599.0175064851260913
 Dipole X            :       -187.7632454          198.1944760           10.4312306
 Dipole Y            :          0.0000000            0.0000000            0.0000000
 Dipole Z            :         -0.0000000            0.0000000           -0.0000000
 Magnitude           :                                                   10.4312306

    SAPT Results
  --------------------------------------------------------------------------------------------------------
    Electrostatics                 95.87114168 [mEh]      60.16004967 [kcal/mol]     251.70964780 [kJ/mol]
      Elst10,r                     95.86589837 [mEh]      60.15675944 [kcal/mol]     251.69588149 [kJ/mol]
      Elst12,r                      0.00524331 [mEh]       0.00329023 [kcal/mol]       0.01376631 [kJ/mol]

    Exchange                       -0.00621922 [mEh]      -0.00390262 [kcal/mol]      -0.01632855 [kJ/mol]
      Exch10                        0.00001148 [mEh]       0.00000720 [kcal/mol]       0.00003014 [kJ/mol]
      Exch10(S^2)                   0.00001148 [mEh]       0.00000720 [kcal/mol]       0.00003014 [kJ/mol]
      Exch11(S^2)                   0.00001179 [mEh]       0.00000740 [kcal/mol]       0.00003094 [kJ/mol]
      Exch12(S^2)                  -0.00624248 [mEh]      -0.00391722 [kcal/mol]      -0.01638964 [kJ/mol]

    Induction                      -0.45344151 [mEh]      -0.28453884 [kcal/mol]      -1.19051053 [kJ/mol]
      Ind20,r                      -0.42509077 [mEh]      -0.26674848 [kcal/mol]      -1.11607566 [kJ/mol]
      Ind22                        -0.03182806 [mEh]      -0.01997241 [kcal/mol]      -0.08356456 [kJ/mol]
      Exch-Ind20,r                  0.00000207 [mEh]       0.00000130 [kcal/mol]       0.00000543 [kJ/mol]
      Exch-Ind22                    0.00000015 [mEh]       0.00000010 [kcal/mol]       0.00000041 [kJ/mol]
      delta HF,r (2)                0.00347509 [mEh]       0.00218065 [kcal/mol]       0.00912385 [kJ/mol]

    Dispersion                     -0.01729049 [mEh]      -0.01084995 [kcal/mol]      -0.04539618 [kJ/mol]
      Disp20                       -0.02149459 [mEh]      -0.01348806 [kcal/mol]      -0.05643405 [kJ/mol]
      Disp21                        0.00587979 [mEh]       0.00368963 [kcal/mol]       0.01543739 [kJ/mol]
      Disp22 (SDQ)                 -0.00048172 [mEh]      -0.00030228 [kcal/mol]      -0.00126476 [kJ/mol]
      Disp22 (T)                   -0.00118991 [mEh]      -0.00074668 [kcal/mol]      -0.00312411 [kJ/mol]
      Est. Disp22 (T)              -0.00119540 [mEh]      -0.00075012 [kcal/mol]      -0.00313852 [kJ/mol]
      Exch-Disp20                   0.00000143 [mEh]       0.00000090 [kcal/mol]       0.00000375 [kJ/mol]

  Total HF                         95.44429624 [mEh]      59.89220011 [kcal/mol]     250.58896525 [kJ/mol]
  Total SAPT0                      95.42280307 [mEh]      59.87871294 [kcal/mol]     250.53253496 [kJ/mol]
  Total SAPT2                      95.38998778 [mEh]      59.85812104 [kcal/mol]     250.44637842 [kJ/mol]
  Total SAPT2+                     95.39419046 [mEh]      59.86075826 [kcal/mol]     250.45741254 [kJ/mol]

  Special recipe for scaled SAPT0 (see Manual):
    Electrostatics sSAPT0          95.86589837 [mEh]      60.15675944 [kcal/mol]     251.69588149 [kJ/mol]
    Exchange sSAPT0                 0.00001148 [mEh]       0.00000720 [kcal/mol]       0.00003014 [kJ/mol]
    Induction sSAPT0               -0.42161361 [mEh]      -0.26456653 [kcal/mol]      -1.10694638 [kJ/mol]
    Dispersion sSAPT0              -0.02149317 [mEh]      -0.01348716 [kcal/mol]      -0.05643030 [kJ/mol]
  Total sSAPT0                     95.42280307 [mEh]      59.87871294 [kcal/mol]     250.53253496 [kJ/mol]
  --------------------------------------------------------------------------------------------------------

*** Psi4 exiting successfully. Buy a developer a beer!
