                               Psi4 1.9 release

  ==> Input File <==

--------------------------------------------------------------------------
MEMORY 60 GB

molecule dimer {
1 1
K      0.000000     0.000000     0.000000
--
1 1
K      3.588000     0.000000     0.000000

units ang
no_reorient
no_com
symmetry c1
}

set {
basis        aug-cc-pVTZ
scf_type     df
}

energy("sapt2+")
--------------------------------------------------------------------------

  //              Dimer HF             //
    Molecular point group: c1
  Charge       = 2
  Multiplicity = 1
  Basis Set: AUG-CC-PVTZ
    Blend: AUG-CC-PVTZ
  Basis Set: (AUG-CC-PVTZ AUX)
    Blend: DEF2-UNIVERSAL-JKFIT
  @DF-RHF Final Energy: -1197.88984138867704
    Total Energy =                      -1197.8898413886772687
 Dipole X            :       -122.0460721          128.8264094            6.7803373
 Dipole Y            :          0.0000000            0.0000000            0.0000000
 Dipole Z            :         -0.0000000            0.0000000           -0.0000000
 Magnitude           :                                                    6.7803373
  //            Monomer A HF           //
    Molecular point group: c1
  Multiplicity = 1
  Basis Set: AUG-CC-PVTZ
    Blend: AUG-CC-PVTZ
  Basis Set: (AUG-CC-PVTZ AUX)
    Blend: DEF2-UNIVERSAL-JKFIT
  @DF-RHF Final Energy:  -599.01750843314892
    Total Energy =                       -599.0175084331489188
  //            Monomer B HF           //
    Molecular point group: c1

    Geometry (in Angstrom), charge = 1, multiplicity = 1:

       Center              X                  Y                   Z               Mass
    ------------   -----------------  -----------------  -----------------  -----------------
      Gh(K)           0.000000000000     0.000000000000     0.000000000000    38.963706486400
         K            3.588000000000     0.000000000000     0.000000000000    38.963706486400

  Charge       = 1
  Multiplicity = 1
  Basis Set: AUG-CC-PVTZ
    Blend: AUG-CC-PVTZ
  Basis Set: (AUG-CC-PVTZ AUX)
    Blend: DEF2-UNIVERSAL-JKFIT

    Orbital Energies [Eh]
    ---------------------

    Doubly Occupied:

       1A   -133.753600     2A    -14.709088     3A    -11.739156
       4A    -11.739149     5A    -11.739149     6A     -1.964306
       7A     -1.170946     8A     -1.170896     9A     -1.170896

  @DF-RHF Final Energy:  -599.01750843313414

   => Energetics <=

    Nuclear Repulsion Energy =              0.0000000000000000
    One-Electron Energy =                -819.7206450686944663
    Two-Electron Energy =                 220.7031366355603268
    Total Energy =                       -599.0175084331341395
 Dipole X            :       -122.0462375          128.8264094            6.7801719
 Dipole Y            :         -0.0000000            0.0000000           -0.0000000
 Dipole Z            :          0.0000000            0.0000000            0.0000000
 Magnitude           :                                                    6.7801719

    SAPT Results
  --------------------------------------------------------------------------------------------------------
    Electrostatics                147.56882164 [mEh]      92.60083361 [kcal/mol]     387.44188783 [kJ/mol]
      Elst10,r                    147.47666577 [mEh]      92.54300493 [kcal/mol]     387.19993264 [kJ/mol]
      Elst12,r                      0.09215587 [mEh]       0.05782868 [kcal/mol]       0.24195520 [kJ/mol]

    Exchange                        0.12363631 [mEh]       0.07758296 [kcal/mol]       0.32460710 [kJ/mol]
      Exch10                        0.14178011 [mEh]       0.08896836 [kcal/mol]       0.37224362 [kJ/mol]
      Exch10(S^2)                   0.14176661 [mEh]       0.08895989 [kcal/mol]       0.37220819 [kJ/mol]
      Exch11(S^2)                   0.00358503 [mEh]       0.00224964 [kcal/mol]       0.00941251 [kJ/mol]
      Exch12(S^2)                  -0.02172883 [mEh]      -0.01363505 [kcal/mol]      -0.05704903 [kJ/mol]

    Induction                      -2.57998623 [mEh]      -1.61896580 [kcal/mol]      -6.77375293 [kJ/mol]
      Ind20,r                      -2.54828048 [mEh]      -1.59907014 [kcal/mol]      -6.69050947 [kJ/mol]
      Ind22                        -0.13967711 [mEh]      -0.08764871 [kcal/mol]      -0.36672221 [kJ/mol]
      Exch-Ind20,r                  0.04851377 [mEh]       0.03044285 [kcal/mol]       0.12737289 [kJ/mol]
      Exch-Ind22                    0.00265915 [mEh]       0.00166864 [kcal/mol]       0.00698160 [kJ/mol]
      delta HF,r (2)                0.05679843 [mEh]       0.03564155 [kcal/mol]       0.14912426 [kJ/mol]

    Dispersion                     -0.27982690 [mEh]      -0.17559403 [kcal/mol]      -0.73468544 [kJ/mol]
      Disp20                       -0.33445502 [mEh]      -0.20987369 [kcal/mol]      -0.87811153 [kJ/mol]
      Disp21                        0.07767198 [mEh]       0.04873990 [kcal/mol]       0.20392774 [kJ/mol]
      Disp22 (SDQ)                 -0.00679891 [mEh]      -0.00426638 [kcal/mol]      -0.01785055 [kJ/mol]
      Disp22 (T)                   -0.01852777 [mEh]      -0.01162635 [kcal/mol]      -0.04864464 [kJ/mol]
      Est. Disp22 (T)              -0.01897829 [mEh]      -0.01190906 [kcal/mol]      -0.04982749 [kJ/mol]
      Exch-Disp20                   0.00273334 [mEh]       0.00171520 [kcal/mol]       0.00717639 [kJ/mol]

  Total HF                        145.17547761 [mEh]      91.09898756 [kcal/mol]     381.15816394 [kJ/mol]
  Total SAPT0                     144.84375593 [mEh]      90.89082906 [kcal/mol]     380.28722880 [kJ/mol]
  Total SAPT2                     144.78075004 [mEh]      90.85129227 [kcal/mol]     380.12180686 [kJ/mol]
  Total SAPT2+                    144.83264481 [mEh]      90.88385673 [kcal/mol]     380.25805657 [kJ/mol]

  Special recipe for scaled SAPT0 (see Manual):
    Electrostatics sSAPT0         147.47666577 [mEh]      92.54300493 [kcal/mol]     387.19993264 [kJ/mol]
    Exchange sSAPT0                 0.14178011 [mEh]       0.08896836 [kcal/mol]       0.37224362 [kJ/mol]
    Induction sSAPT0               -2.44295442 [mEh]      -1.53297704 [kcal/mol]      -6.41397594 [kJ/mol]
    Dispersion sSAPT0              -0.33172090 [mEh]      -0.20815800 [kcal/mol]      -0.87093309 [kJ/mol]
  Total sSAPT0                    144.84377057 [mEh]      90.89083825 [kcal/mol]     380.28726723 [kJ/mol]
  --------------------------------------------------------------------------------------------------------

*** Psi4 exiting successfully. Buy a developer a beer!
