                               Psi4 1.9 release

  ==> Input File <==

--------------------------------------------------------------------------
MEMORY 60 GB

molecule dimer {
1 1
K      0.000000     0.000000     0.000000
--
1 1
K      2.760000     0.000000     0.000000

units ang
no_reorient
no_com
symmetry c1
}

set {
basis        aug-cc-pVTZ
scf_type     df
}

energy("sapt2+")
--------------------------------------------------------------------------

  //              Dimer HF             //
    Molecular point group: c1
  Charge       = 2
  Multiplicity = 1
  Basis Set: AUG-CC-PVTZ
    Blend: AUG-CC-PVTZ
  Basis Set: (AUG-CC-PVTZ AUX)
    Blend: DEF2-UNIVERSAL-JKFIT
  @DF-RHF Final Energy: -1197.84437951670270
    Total Energy =                      -1197.8443795167027019
 Dipole X            :        -93.8815939           99.0972380            5.2156441
 Dipole Y            :          0.0000000            0.0000000            0.0000000
 Dipole Z            :          0.0000000            0.0000000            0.0000000
 Magnitude           :                                                    5.2156441
  //            Monomer A HF           //
    Molecular point group: c1
  Multiplicity = 1
  Basis Set: AUG-CC-PVTZ
    Blend: AUG-CC-PVTZ
  Basis Set: (AUG-CC-PVTZ AUX)
    Blend: DEF2-UNIVERSAL-JKFIT
  @DF-RHF Final Energy:  -599.01750902179560
    Total Energy =                       -599.0175090217956040
  //            Monomer B HF           //
    Molecular point group: c1

    Geometry (in Angstrom), charge = 1, multiplicity = 1:

       Center              X                  Y                   Z               Mass
    ------------   -----------------  -----------------  -----------------  -----------------
      Gh(K)           0.000000000000     0.000000000000     0.000000000000    38.963706486400
         K            2.760000000000     0.000000000000     0.000000000000    38.963706486400

  Charge       = 1
  Multiplicity = 1
  Basis Set: AUG-CC-PVTZ
    Blend: AUG-CC-PVTZ
  Basis Set: (AUG-CC-PVTZ AUX)
    Blend: DEF2-UNIVERSAL-JKFIT

    Orbital Energies [Eh]
    ---------------------

    Doubly Occupied:

       1A   -133.753482     2A    -14.708993     3A    -11.739063
       4A    -11.739059     5A    -11.739059     6A     -1.964264
       7A     -1.170927     8A     -1.170871     9A     -1.170871

  @DF-RHF Final Energy:  -599.01750902182539

   => Energetics <=

    Nuclear Repulsion Energy =              0.0000000000000000
    One-Electron Energy =                -819.7218420965141377
    Two-Electron Energy =                 220.7043330746886909
    Total Energy =                       -599.0175090218253899
 Dipole X            :        -93.8818934           99.0972380            5.2153447
 Dipole Y            :         -0.0000000            0.0000000           -0.0000000
 Dipole Z            :          0.0000000            0.0000000            0.0000000
 Magnitude           :                                                    5.2153447

    SAPT Results
  --------------------------------------------------------------------------------------------------------
    Electrostatics                190.59490598 [mEh]     119.60010916 [kcal/mol]     500.40685671 [kJ/mol]
      Elst10,r                    190.63784304 [mEh]     119.62705257 [kcal/mol]     500.51958793 [kJ/mol]
      Elst12,r                     -0.04293705 [mEh]      -0.02694341 [kcal/mol]      -0.11273122 [kJ/mol]

    Exchange                        7.14130755 [mEh]       4.48123814 [kcal/mol]      18.74950040 [kJ/mol]
      Exch10                        6.82318242 [mEh]       4.28161161 [kcal/mol]      17.91426298 [kJ/mol]
      Exch10(S^2)                   6.80099171 [mEh]       4.26768673 [kcal/mol]      17.85600129 [kJ/mol]
      Exch11(S^2)                   0.07304688 [mEh]       0.04583761 [kcal/mol]       0.19178455 [kJ/mol]
      Exch12(S^2)                   0.24507825 [mEh]       0.15378893 [kcal/mol]       0.64345287 [kJ/mol]

    Induction                      -7.20353843 [mEh]      -4.52028861 [kcal/mol]     -18.91288755 [kJ/mol]
      Ind20,r                     -10.22273412 [mEh]      -6.41486251 [kcal/mol]     -26.83978472 [kJ/mol]
      Ind22                        -0.54714072 [mEh]      -0.34333599 [kcal/mol]      -1.43651777 [kJ/mol]
      Exch-Ind20,r                  3.10341475 [mEh]       1.94742216 [kcal/mol]       8.14801430 [kJ/mol]
      Exch-Ind22                    0.16610083 [mEh]       0.10422984 [kcal/mol]       0.43609766 [kJ/mol]
      delta HF,r (2)                0.29682083 [mEh]       0.18625788 [kcal/mol]       0.77930298 [kJ/mol]

    Dispersion                     -1.46996244 [mEh]      -0.92241536 [kcal/mol]      -3.85938586 [kJ/mol]
      Disp20                       -1.79527894 [mEh]      -1.12655454 [kcal/mol]      -4.71350420 [kJ/mol]
      Disp21                        0.37165448 [mEh]       0.23321671 [kcal/mol]       0.97577871 [kJ/mol]
      Disp22 (SDQ)                 -0.02762284 [mEh]      -0.01733359 [kcal/mol]      -0.07252376 [kJ/mol]
      Disp22 (T)                   -0.09320883 [mEh]      -0.05848942 [kcal/mol]      -0.24471974 [kJ/mol]
      Est. Disp22 (T)              -0.09772079 [mEh]      -0.06132072 [kcal/mol]      -0.25656589 [kJ/mol]
      Exch-Disp20                   0.07900564 [mEh]       0.04957679 [kcal/mol]       0.20742927 [kJ/mol]

  Total HF                        190.63852692 [mEh]     119.62748171 [kcal/mol]     500.52138347 [kJ/mol]
  Total SAPT0                     188.92225362 [mEh]     118.55050395 [kcal/mol]     496.01530854 [kJ/mol]
  Total SAPT2                     188.81640180 [mEh]     118.48408093 [kcal/mol]     495.73739463 [kJ/mol]
  Total SAPT2+                    189.06271266 [mEh]     118.63864333 [kcal/mol]     496.38408369 [kJ/mol]

  Special recipe for scaled SAPT0 (see Manual):
    Electrostatics sSAPT0         190.63784304 [mEh]     119.62705257 [kcal/mol]     500.51958793 [kJ/mol]
    Exchange sSAPT0                 6.82318242 [mEh]       4.28161161 [kcal/mol]      17.91426298 [kJ/mol]
    Induction sSAPT0               -6.79202126 [mEh]      -4.26205768 [kcal/mol]     -17.83244935 [kJ/mol]
    Dispersion sSAPT0              -1.71549742 [mEh]      -1.07649088 [kcal/mol]      -4.50403785 [kJ/mol]
  Total sSAPT0                    188.95350678 [mEh]     118.57011561 [kcal/mol]     496.09736371 [kJ/mol]
  --------------------------------------------------------------------------------------------------------

*** Psi4 exiting successfully. Buy a developer a beer!
