                               Psi4 1.9 release

  ==> Input File <==

--------------------------------------------------------------------------
MEMORY 60 GB

molecule dimer {
1 1
K      0.000000     0.000000     0.000000
--
1 1
K      3.312000     0.000000     0.000000

units ang
no_reorient
no_com
symmetry c1
}

set {
basis        aug-cc-pVTZ
scf_type     df
}

energy("sapt2+")
--------------------------------------------------------------------------

  //              Dimer HF             //
    Molecular point group: c1
  Charge       = 2
  Multiplicity = 1
  Basis Set: AUG-CC-PVTZ
    Blend: AUG-CC-PVTZ
  Basis Set: (AUG-CC-PVTZ AUX)
    Blend: DEF2-UNIVERSAL-JKFIT
  @DF-RHF Final Energy: -1197.87817143395841
    Total Energy =                      -1197.8781714339584141
 Dipole X            :       -112.6579127          118.9166856            6.2587729
 Dipole Y            :         -0.0000000            0.0000000           -0.0000000
 Dipole Z            :          0.0000000            0.0000000            0.0000000
 Magnitude           :                                                    6.2587729
  //            Monomer A HF           //
    Molecular point group: c1
  Multiplicity = 1
  Basis Set: AUG-CC-PVTZ
    Blend: AUG-CC-PVTZ
  Basis Set: (AUG-CC-PVTZ AUX)
    Blend: DEF2-UNIVERSAL-JKFIT
  @DF-RHF Final Energy:  -599.01750871647141
    Total Energy =                       -599.0175087164714114
  //            Monomer B HF           //
    Molecular point group: c1

    Geometry (in Angstrom), charge = 1, multiplicity = 1:

       Center              X                  Y                   Z               Mass
    ------------   -----------------  -----------------  -----------------  -----------------
      Gh(K)           0.000000000000     0.000000000000     0.000000000000    38.963706486400
         K            3.312000000000     0.000000000000     0.000000000000    38.963706486400

  Charge       = 1
  Multiplicity = 1
  Basis Set: AUG-CC-PVTZ
    Blend: AUG-CC-PVTZ
  Basis Set: (AUG-CC-PVTZ AUX)
    Blend: DEF2-UNIVERSAL-JKFIT

    Orbital Energies [Eh]
    ---------------------

    Doubly Occupied:

       1A   -133.753563     2A    -14.709056     3A    -11.739127
       4A    -11.739120     5A    -11.739120     6A     -1.964288
       7A     -1.170945     8A     -1.170888     9A     -1.170888

  @DF-RHF Final Energy:  -599.01750871644560

   => Energetics <=

    Nuclear Repulsion Energy =              0.0000000000000000
    One-Electron Energy =                -819.7210261954552379
    Two-Electron Energy =                 220.7035174790096335
    Total Energy =                       -599.0175087164456045
 Dipole X            :       -112.6581394          118.9166856            6.2585462
 Dipole Y            :          0.0000000            0.0000000            0.0000000
 Dipole Z            :         -0.0000000            0.0000000           -0.0000000
 Magnitude           :                                                    6.2585462

    SAPT Results
  --------------------------------------------------------------------------------------------------------
    Electrostatics                159.77431929 [mEh]     100.25989902 [kcal/mol]     419.48741751 [kJ/mol]
      Elst10,r                    159.71875543 [mEh]     100.22503217 [kcal/mol]     419.34153461 [kJ/mol]
      Elst12,r                      0.05556386 [mEh]       0.03486685 [kcal/mol]       0.14588289 [kJ/mol]

    Exchange                        0.53157293 [mEh]       0.33356705 [kcal/mol]       1.39564453 [kJ/mol]
      Exch10                        0.52779093 [mEh]       0.33119381 [kcal/mol]       1.38571489 [kJ/mol]
      Exch10(S^2)                   0.52762268 [mEh]       0.33108823 [kcal/mol]       1.38527315 [kJ/mol]
      Exch11(S^2)                   0.01082467 [mEh]       0.00679258 [kcal/mol]       0.02842016 [kJ/mol]
      Exch12(S^2)                  -0.00704267 [mEh]      -0.00441934 [kcal/mol]      -0.01849052 [kJ/mol]

    Induction                      -3.58889873 [mEh]      -2.25206795 [kcal/mol]      -9.42265232 [kJ/mol]
      Ind20,r                      -3.70295200 [mEh]      -2.32363746 [kcal/mol]      -9.72209914 [kJ/mol]
      Ind22                        -0.19877948 [mEh]      -0.12473601 [kcal/mol]      -0.52189545 [kJ/mol]
      Exch-Ind20,r                  0.19426016 [mEh]       0.12190009 [kcal/mol]       0.51002997 [kJ/mol]
      Exch-Ind22                    0.01042815 [mEh]       0.00654376 [kcal/mol]       0.02737910 [kJ/mol]
      delta HF,r (2)                0.10814444 [mEh]       0.06786166 [kcal/mol]       0.28393320 [kJ/mol]

    Dispersion                     -0.48096662 [mEh]      -0.30181111 [kcal/mol]      -1.26277769 [kJ/mol]
      Disp20                       -0.56905810 [mEh]      -0.35708935 [kcal/mol]      -1.49406185 [kJ/mol]
      Disp21                        0.12423596 [mEh]       0.07795924 [kcal/mol]       0.32618146 [kJ/mol]
      Disp22 (SDQ)                 -0.01154162 [mEh]      -0.00724248 [kcal/mol]      -0.03030253 [kJ/mol]
      Disp22 (T)                   -0.03168224 [mEh]      -0.01988091 [kcal/mol]      -0.08318171 [kJ/mol]
      Est. Disp22 (T)              -0.03259686 [mEh]      -0.02045484 [kcal/mol]      -0.08558304 [kJ/mol]
      Exch-Disp20                   0.00799401 [mEh]       0.00501632 [kcal/mol]       0.02098827 [kJ/mol]

  Total HF                        156.84599896 [mEh]      98.42235027 [kcal/mol]     411.79911353 [kJ/mol]
  Total SAPT0                     156.28493487 [mEh]      98.07027724 [kcal/mol]     410.32603996 [kJ/mol]
  Total SAPT2                     156.15592940 [mEh]      97.98932508 [kcal/mol]     409.98733615 [kJ/mol]
  Total SAPT2+                    156.23602687 [mEh]      98.03958701 [kcal/mol]     410.19763204 [kJ/mol]

  Special recipe for scaled SAPT0 (see Manual):
    Electrostatics sSAPT0         159.71875543 [mEh]     100.22503217 [kcal/mol]     419.34153461 [kJ/mol]
    Exchange sSAPT0                 0.52779093 [mEh]       0.33119381 [kcal/mol]       1.38571489 [kJ/mol]
    Induction sSAPT0               -3.40036150 [mEh]      -2.13375906 [kcal/mol]      -8.92764790 [kJ/mol]
    Dispersion sSAPT0              -0.56105644 [mEh]      -0.35206823 [kcal/mol]      -1.47305349 [kJ/mol]
  Total sSAPT0                    156.28512841 [mEh]      98.07039869 [kcal/mol]     410.32654812 [kJ/mol]
  --------------------------------------------------------------------------------------------------------

*** Psi4 exiting successfully. Buy a developer a beer!
