                               Psi4 1.9 release

  ==> Input File <==

--------------------------------------------------------------------------
MEMORY 60 GB

molecule dimer {
1 1
K      0.000000     0.000000     0.000000
--
1 1
K      3.036000     0.000000     0.000000

units ang
no_reorient
no_com
symmetry c1
}

set {
basis        aug-cc-pVTZ
scf_type     df
}

energy("sapt2+")
--------------------------------------------------------------------------

  //              Dimer HF             //
    Molecular point group: c1
  Charge       = 2
  Multiplicity = 1
  Basis Set: AUG-CC-PVTZ
    Blend: AUG-CC-PVTZ
  Basis Set: (AUG-CC-PVTZ AUX)
    Blend: DEF2-UNIVERSAL-JKFIT
  @DF-RHF Final Energy: -1197.86382872028912
    Total Energy =                      -1197.8638287202891206
 Dipole X            :       -103.2697533          109.0069618            5.7372085
 Dipole Y            :         -0.0000000            0.0000000           -0.0000000
 Dipole Z            :          0.0000000            0.0000000            0.0000000
 Magnitude           :                                                    5.7372085
  //            Monomer A HF           //
    Molecular point group: c1
  Multiplicity = 1
  Basis Set: AUG-CC-PVTZ
    Blend: AUG-CC-PVTZ
  Basis Set: (AUG-CC-PVTZ AUX)
    Blend: DEF2-UNIVERSAL-JKFIT
  @DF-RHF Final Energy:  -599.01750893457529
    Total Energy =                       -599.0175089345752895
  //            Monomer B HF           //
    Molecular point group: c1

    Geometry (in Angstrom), charge = 1, multiplicity = 1:

       Center              X                  Y                   Z               Mass
    ------------   -----------------  -----------------  -----------------  -----------------
      Gh(K)           0.000000000000     0.000000000000     0.000000000000    38.963706486400
         K            3.036000000000     0.000000000000     0.000000000000    38.963706486400

  Charge       = 1
  Multiplicity = 1
  Basis Set: AUG-CC-PVTZ
    Blend: AUG-CC-PVTZ
  Basis Set: (AUG-CC-PVTZ AUX)
    Blend: DEF2-UNIVERSAL-JKFIT

    Orbital Energies [Eh]
    ---------------------

    Doubly Occupied:

       1A   -133.753514     2A    -14.709016     3A    -11.739088
       4A    -11.739082     5A    -11.739082     6A     -1.964272
       7A     -1.170935     8A     -1.170875     9A     -1.170875

  @DF-RHF Final Energy:  -599.01750893445046

   => Energetics <=

    Nuclear Repulsion Energy =              0.0000000000000000
    One-Electron Energy =                -819.7215396540391339
    Two-Electron Energy =                 220.7040307195886157
    Total Energy =                       -599.0175089344504613
 Dipole X            :       -103.2700468          109.0069618            5.7369150
 Dipole Y            :          0.0000000            0.0000000            0.0000000
 Dipole Z            :         -0.0000000            0.0000000           -0.0000000
 Magnitude           :                                                    5.7369150

    SAPT Results
  --------------------------------------------------------------------------------------------------------
    Electrostatics                174.03829963 [mEh]     109.21068182 [kcal/mol]     456.93749272 [kJ/mol]
      Elst10,r                    174.03852346 [mEh]     109.21082227 [kcal/mol]     456.93808039 [kJ/mol]
      Elst12,r                     -0.00022383 [mEh]      -0.00014046 [kcal/mol]      -0.00058767 [kJ/mol]

    Exchange                        2.00874636 [mEh]       1.26050737 [kcal/mol]       5.27396283 [kJ/mol]
      Exch10                        1.92339438 [mEh]       1.20694819 [kcal/mol]       5.04987124 [kJ/mol]
      Exch10(S^2)                   1.92139979 [mEh]       1.20569657 [kcal/mol]       5.04463445 [kJ/mol]
      Exch11(S^2)                   0.02996099 [mEh]       0.01880080 [kcal/mol]       0.07866256 [kJ/mol]
      Exch12(S^2)                   0.05539099 [mEh]       0.03475837 [kcal/mol]       0.14542904 [kJ/mol]

    Induction                      -5.03075618 [mEh]      -3.15684716 [kcal/mol]     -13.20824852 [kJ/mol]
      Ind20,r                      -5.74844958 [mEh]      -3.60720657 [kcal/mol]     -15.09255228 [kJ/mol]
      Ind22                        -0.29837831 [mEh]      -0.18723522 [kcal/mol]      -0.78339214 [kJ/mol]
      Exch-Ind20,r                  0.77816298 [mEh]       0.48830464 [kcal/mol]       2.04306663 [kJ/mol]
      Exch-Ind22                    0.04039123 [mEh]       0.02534588 [kcal/mol]       0.10604716 [kJ/mol]
      delta HF,r (2)                0.19751750 [mEh]       0.12394410 [kcal/mol]       0.51858211 [kJ/mol]

    Dispersion                     -0.83370358 [mEh]      -0.52315690 [kcal/mol]      -2.18888845 [kJ/mol]
      Disp20                       -0.99361329 [mEh]      -0.62350175 [kcal/mol]      -2.60873133 [kJ/mol]
      Disp21                        0.20931797 [mEh]       0.13134901 [kcal/mol]       0.54956426 [kJ/mol]
      Disp22 (SDQ)                 -0.01839051 [mEh]      -0.01154022 [kcal/mol]      -0.04828427 [kJ/mol]
      Disp22 (T)                   -0.05390612 [mEh]      -0.03382660 [kcal/mol]      -0.14153049 [kJ/mol]
      Est. Disp22 (T)              -0.05590190 [mEh]      -0.03507897 [kcal/mol]      -0.14677042 [kJ/mol]
      Exch-Disp20                   0.02488414 [mEh]       0.01561504 [kcal/mol]       0.06533331 [kJ/mol]

  Total HF                        171.18914874 [mEh]     107.42281264 [kcal/mol]     449.45704809 [kJ/mol]
  Total SAPT0                     170.22041959 [mEh]     106.81492592 [kcal/mol]     446.91365007 [kJ/mol]
  Total SAPT2                     170.04756067 [mEh]     106.70645531 [kcal/mol]     446.45980902 [kJ/mol]
  Total SAPT2+                    170.18258623 [mEh]     106.79118513 [kcal/mol]     446.81431858 [kJ/mol]

  Special recipe for scaled SAPT0 (see Manual):
    Electrostatics sSAPT0         174.03852346 [mEh]     109.21082227 [kcal/mol]     456.93808039 [kJ/mol]
    Exchange sSAPT0                 1.92339438 [mEh]       1.20694819 [kcal/mol]       5.04987124 [kJ/mol]
    Induction sSAPT0               -4.77034317 [mEh]      -2.99343553 [kcal/mol]     -12.52453427 [kJ/mol]
    Dispersion sSAPT0              -0.96865157 [mEh]      -0.60783804 [kcal/mol]      -2.54319434 [kJ/mol]
  Total sSAPT0                    170.22292310 [mEh]     106.81649690 [kcal/mol]     446.92022302 [kJ/mol]
  --------------------------------------------------------------------------------------------------------

*** Psi4 exiting successfully. Buy a developer a beer!
