                               Psi4 1.9 release

  ==> Input File <==

--------------------------------------------------------------------------
MEMORY 60 GB

molecule dimer {
1 1
K      0.000000     0.000000     0.000000
--
1 1
K      4.140000     0.000000     0.000000

units ang
no_reorient
no_com
symmetry c1
}

set {
basis        aug-cc-pVTZ
scf_type     df
}

energy("sapt2+")
--------------------------------------------------------------------------

  //              Dimer HF             //
    Molecular point group: c1
  Charge       = 2
  Multiplicity = 1
  Basis Set: AUG-CC-PVTZ
    Blend: AUG-CC-PVTZ
  Basis Set: (AUG-CC-PVTZ AUX)
    Blend: DEF2-UNIVERSAL-JKFIT
  @DF-RHF Final Energy: -1197.90854874131264
    Total Energy =                      -1197.9085487413126430
 Dipole X            :       -140.8223909          148.6458570            7.8234662
 Dipole Y            :          0.0000000            0.0000000            0.0000000
 Dipole Z            :          0.0000000            0.0000000            0.0000000
 Magnitude           :                                                    7.8234662
  //            Monomer A HF           //
    Molecular point group: c1
  Multiplicity = 1
  Basis Set: AUG-CC-PVTZ
    Blend: AUG-CC-PVTZ
  Basis Set: (AUG-CC-PVTZ AUX)
    Blend: DEF2-UNIVERSAL-JKFIT
  @DF-RHF Final Energy:  -599.01750762190795
    Total Energy =                       -599.0175076219079529
  //            Monomer B HF           //
    Molecular point group: c1

    Geometry (in Angstrom), charge = 1, multiplicity = 1:

       Center              X                  Y                   Z               Mass
    ------------   -----------------  -----------------  -----------------  -----------------
      Gh(K)           0.000000000000     0.000000000000     0.000000000000    38.963706486400
         K            4.140000000000     0.000000000000     0.000000000000    38.963706486400

  Charge       = 1
  Multiplicity = 1
  Basis Set: AUG-CC-PVTZ
    Blend: AUG-CC-PVTZ
  Basis Set: (AUG-CC-PVTZ AUX)
    Blend: DEF2-UNIVERSAL-JKFIT

    Orbital Energies [Eh]
    ---------------------

    Doubly Occupied:

       1A   -133.753686     2A    -14.709155     3A    -11.739220
       4A    -11.739215     5A    -11.739215     6A     -1.964345
       7A     -1.170958     8A     -1.170921     9A     -1.170921

  @DF-RHF Final Energy:  -599.01750762189511

   => Energetics <=

    Nuclear Repulsion Energy =              0.0000000000000000
    One-Electron Energy =                -819.7197436304484199
    Two-Electron Energy =                 220.7022360085533137
    Total Energy =                       -599.0175076218951062
 Dipole X            :       -140.8226476          148.6458570            7.8232094
 Dipole Y            :         -0.0000000            0.0000000           -0.0000000
 Dipole Z            :         -0.0000000            0.0000000           -0.0000000
 Magnitude           :                                                    7.8232094

    SAPT Results
  --------------------------------------------------------------------------------------------------------
    Electrostatics                127.93999142 [mEh]      80.28355669 [kcal/mol]     335.90640120 [kJ/mol]
      Elst10,r                    127.82846025 [mEh]      80.21356982 [kcal/mol]     335.61357615 [kJ/mol]
      Elst12,r                      0.11153117 [mEh]       0.06998687 [kcal/mol]       0.29282506 [kJ/mol]

    Exchange                       -0.00846680 [mEh]      -0.00531299 [kcal/mol]      -0.02222957 [kJ/mol]
      Exch10                        0.00993680 [mEh]       0.00623543 [kcal/mol]       0.02608906 [kJ/mol]
      Exch10(S^2)                   0.00993672 [mEh]       0.00623538 [kcal/mol]       0.02608884 [kJ/mol]
      Exch11(S^2)                   0.00046390 [mEh]       0.00029110 [kcal/mol]       0.00121796 [kJ/mol]
      Exch12(S^2)                  -0.01886749 [mEh]      -0.01183953 [kcal/mol]      -0.04953659 [kJ/mol]

    Induction                      -1.44619385 [mEh]      -0.90750034 [kcal/mol]      -3.79698143 [kJ/mol]
      Ind20,r                      -1.39486150 [mEh]      -0.87528880 [kcal/mol]      -3.66220835 [kJ/mol]
      Ind22                        -0.07442758 [mEh]      -0.04670401 [kcal/mol]      -0.19540959 [kJ/mol]
      Exch-Ind20,r                  0.00240429 [mEh]       0.00150871 [kcal/mol]       0.00631246 [kJ/mol]
      Exch-Ind22                    0.00012829 [mEh]       0.00008050 [kcal/mol]       0.00033682 [kJ/mol]
      delta HF,r (2)                0.02056265 [mEh]       0.01290326 [kcal/mol]       0.05398723 [kJ/mol]

    Dispersion                     -0.11044648 [mEh]      -0.06930621 [kcal/mol]      -0.28997720 [kJ/mol]
      Disp20                       -0.13305100 [mEh]      -0.08349076 [kcal/mol]      -0.34932535 [kJ/mol]
      Disp21                        0.03289848 [mEh]       0.02064411 [kcal/mol]       0.08637494 [kJ/mol]
      Disp22 (SDQ)                 -0.00288291 [mEh]      -0.00180906 [kcal/mol]      -0.00756909 [kJ/mol]
      Disp22 (T)                   -0.00753918 [mEh]      -0.00473091 [kcal/mol]      -0.01979412 [kJ/mol]
      Est. Disp22 (T)              -0.00770797 [mEh]      -0.00483683 [kcal/mol]      -0.02023728 [kJ/mol]
      Exch-Disp20                   0.00029693 [mEh]       0.00018633 [kcal/mol]       0.00077959 [kJ/mol]

  Total HF                        126.46650249 [mEh]      79.35892843 [kcal/mol]     332.03775654 [kJ/mol]
  Total SAPT0                     126.33374842 [mEh]      79.27562399 [kcal/mol]     331.68921078 [kJ/mol]
  Total SAPT2                     126.35257671 [mEh]      79.28743892 [kcal/mol]     331.73864444 [kJ/mol]
  Total SAPT2+                    126.37488429 [mEh]      79.30143714 [kcal/mol]     331.79721300 [kJ/mol]

  Special recipe for scaled SAPT0 (see Manual):
    Electrostatics sSAPT0         127.82846025 [mEh]      80.21356982 [kcal/mol]     335.61357615 [kJ/mol]
    Exchange sSAPT0                 0.00993680 [mEh]       0.00623543 [kcal/mol]       0.02608906 [kJ/mol]
    Induction sSAPT0               -1.37189456 [mEh]      -0.86087683 [kcal/mol]      -3.60190866 [kJ/mol]
    Dispersion sSAPT0              -0.13275407 [mEh]      -0.08330444 [kcal/mol]      -0.34854576 [kJ/mol]
  Total sSAPT0                    126.33374842 [mEh]      79.27562399 [kcal/mol]     331.68921078 [kJ/mol]
  --------------------------------------------------------------------------------------------------------

*** Psi4 exiting successfully. Buy a developer a beer!
