                               Psi4 1.9 release

  ==> Input File <==

--------------------------------------------------------------------------
MEMORY 60 GB

molecule dimer {
-1 1
F      0.000000     0.000000     0.000000
--
-1 1
F      3.724000     0.000000     0.000000

units ang
no_reorient
no_com
symmetry c1
}

set {
basis        aug-cc-pVTZ
scf_type     df
}

energy("sapt2+")
--------------------------------------------------------------------------

  //              Dimer HF             //
    Molecular point group: c1
  Charge       = -2
  Multiplicity = 1
  Basis Set: AUG-CC-PVTZ
    Blend: AUG-CC-PVTZ
  Basis Set: (AUG-CC-PVTZ AUX)
    Blend: AUG-CC-PVTZ-JKFIT
  @DF-RHF Final Energy:  -198.76294133698104
    Total Energy =                       -198.7629413369810436
 Dipole X            :        -70.3734009           63.3360608           -7.0373401
 Dipole Y            :          0.0000000            0.0000000            0.0000000
 Dipole Z            :         -0.0000000            0.0000000           -0.0000000
 Magnitude           :                                                    7.0373401
  //            Monomer A HF           //
    Molecular point group: c1
  Multiplicity = 1
  Basis Set: AUG-CC-PVTZ
    Blend: AUG-CC-PVTZ
  Basis Set: (AUG-CC-PVTZ AUX)
    Blend: AUG-CC-PVTZ-JKFIT
  @DF-RHF Final Energy:   -99.45080974111278
    Total Energy =                        -99.4508097411127778
  //            Monomer B HF           //
    Molecular point group: c1

    Geometry (in Angstrom), charge = -1, multiplicity = 1:

       Center              X                  Y                   Z               Mass
    ------------   -----------------  -----------------  -----------------  -----------------
      Gh(F)           0.000000000000     0.000000000000     0.000000000000    18.998403162730
         F            3.724000000000     0.000000000000     0.000000000000    18.998403162730

  Charge       = -1
  Multiplicity = 1
  Basis Set: AUG-CC-PVTZ
    Blend: AUG-CC-PVTZ
  Basis Set: (AUG-CC-PVTZ AUX)
    Blend: AUG-CC-PVTZ-JKFIT

    Orbital Energies [Eh]
    ---------------------

    Doubly Occupied:

       1A    -25.833707     2A     -1.076028     3A     -0.180957
       4A     -0.180956     5A     -0.180956

  @DF-RHF Final Energy:   -99.45080974111224

   => Energetics <=

    Nuclear Repulsion Energy =              0.0000000000000000
    One-Electron Energy =                -143.9964073418337591
    Two-Electron Energy =                  44.5455976007215213
    Total Energy =                        -99.4508097411122378
 Dipole X            :        -70.3733226           63.3360608           -7.0372618
 Dipole Y            :          0.0000000            0.0000000            0.0000000
 Dipole Z            :         -0.0000000            0.0000000           -0.0000000
 Magnitude           :                                                    7.0372618

    SAPT Results
  --------------------------------------------------------------------------------------------------------
    Electrostatics                141.54549208 [mEh]      88.82113725 [kcal/mol]     371.62763825 [kJ/mol]
      Elst10,r                    141.75242615 [mEh]      88.95099034 [kcal/mol]     372.17094358 [kJ/mol]
      Elst12,r                     -0.20693407 [mEh]      -0.12985309 [kcal/mol]      -0.54330533 [kJ/mol]

    Exchange                        0.43045110 [mEh]       0.27011215 [kcal/mol]       1.13014922 [kJ/mol]
      Exch10                        0.22588764 [mEh]       0.14174663 [kcal/mol]       0.59306792 [kJ/mol]
      Exch10(S^2)                   0.22609622 [mEh]       0.14187752 [kcal/mol]       0.59361556 [kJ/mol]
      Exch11(S^2)                  -0.03651496 [mEh]      -0.02291348 [kcal/mol]      -0.09587001 [kJ/mol]
      Exch12(S^2)                   0.24107842 [mEh]       0.15127899 [kcal/mol]       0.63295131 [kJ/mol]

    Induction                      -4.38547946 [mEh]      -2.75192991 [kcal/mol]     -11.51407474 [kJ/mol]
      Ind20,r                      -3.82620384 [mEh]      -2.40097916 [kcal/mol]     -10.04569680 [kJ/mol]
      Ind22                        -1.13000040 [mEh]      -0.70908596 [kcal/mol]      -2.96681564 [kJ/mol]
      Exch-Ind20,r                  0.15131948 [mEh]       0.09495441 [kcal/mol]       0.39728924 [kJ/mol]
      Exch-Ind22                    0.04468948 [mEh]       0.02804307 [kcal/mol]       0.11733222 [kJ/mol]
      delta HF,r (2)                0.37471582 [mEh]       0.23513772 [kcal/mol]       0.98381624 [kJ/mol]

    Dispersion                     -0.57003618 [mEh]      -0.35770310 [kcal/mol]      -1.49662978 [kJ/mol]
      Disp20                       -0.39597449 [mEh]      -0.24847775 [kcal/mol]      -1.03963089 [kJ/mol]
      Disp21                       -0.01437062 [mEh]      -0.00901770 [kcal/mol]      -0.03773005 [kJ/mol]
      Disp22 (SDQ)                 -0.12359064 [mEh]      -0.07755430 [kcal/mol]      -0.32448719 [kJ/mol]
      Disp22 (T)                   -0.08344287 [mEh]      -0.05236119 [kcal/mol]      -0.21907924 [kJ/mol]
      Est. Disp22 (T)              -0.10958765 [mEh]      -0.06876729 [kcal/mol]      -0.28772233 [kJ/mol]
      Exch-Disp20                   0.07348722 [mEh]       0.04611393 [kcal/mol]       0.19294068 [kJ/mol]

  Total HF                        138.67814524 [mEh]      87.02184995 [kcal/mol]     364.09942018 [kJ/mol]
  Total SAPT0                     138.35565797 [mEh]      86.81948613 [kcal/mol]     363.25272996 [kJ/mol]
  Total SAPT2                     137.26797645 [mEh]      86.13695567 [kcal/mol]     360.39702252 [kJ/mol]
  Total SAPT2+                    137.02042754 [mEh]      85.98161638 [kcal/mol]     359.74708294 [kJ/mol]

  Special recipe for scaled SAPT0 (see Manual):
    Electrostatics sSAPT0         141.75242615 [mEh]      88.95099034 [kcal/mol]     372.17094358 [kJ/mol]
    Exchange sSAPT0                 0.22588764 [mEh]       0.14174663 [kcal/mol]       0.59306792 [kJ/mol]
    Induction sSAPT0               -3.30058696 [mEh]      -2.07114958 [kcal/mol]      -8.66568986 [kJ/mol]
    Dispersion sSAPT0              -0.32269047 [mEh]      -0.20249133 [kcal/mol]      -0.84722371 [kJ/mol]
  Total sSAPT0                    138.35503636 [mEh]      86.81909606 [kcal/mol]     363.25109793 [kJ/mol]
  --------------------------------------------------------------------------------------------------------

*** Psi4 exiting successfully. Buy a developer a beer!
