                               Psi4 1.9 release

  ==> Input File <==

--------------------------------------------------------------------------
MEMORY 60 GB

molecule dimer {
-1 1
F      0.000000     0.000000     0.000000
--
-1 1
F      3.458000     0.000000     0.000000

units ang
no_reorient
no_com
symmetry c1
}

set {
basis        aug-cc-pVTZ
scf_type     df
}

energy("sapt2+")
--------------------------------------------------------------------------

  //              Dimer HF             //
    Molecular point group: c1
  Charge       = -2
  Multiplicity = 1
  Basis Set: AUG-CC-PVTZ
    Blend: AUG-CC-PVTZ
  Basis Set: (AUG-CC-PVTZ AUX)
    Blend: AUG-CC-PVTZ-JKFIT
  @DF-RHF Final Energy:  -198.75314872086147
    Total Energy =                       -198.7531487208614749
 Dipole X            :        -65.3467294           58.8120565           -6.5346729
 Dipole Y            :          0.0000000            0.0000000            0.0000000
 Dipole Z            :          0.0000000            0.0000000            0.0000000
 Magnitude           :                                                    6.5346729
  //            Monomer A HF           //
    Molecular point group: c1
  Multiplicity = 1
  Basis Set: AUG-CC-PVTZ
    Blend: AUG-CC-PVTZ
  Basis Set: (AUG-CC-PVTZ AUX)
    Blend: AUG-CC-PVTZ-JKFIT
  @DF-RHF Final Energy:   -99.45081337162493
    Total Energy =                        -99.4508133716249176
  //            Monomer B HF           //
    Molecular point group: c1

    Geometry (in Angstrom), charge = -1, multiplicity = 1:

       Center              X                  Y                   Z               Mass
    ------------   -----------------  -----------------  -----------------  -----------------
      Gh(F)           0.000000000000     0.000000000000     0.000000000000    18.998403162730
         F            3.458000000000     0.000000000000     0.000000000000    18.998403162730

  Charge       = -1
  Multiplicity = 1
  Basis Set: AUG-CC-PVTZ
    Blend: AUG-CC-PVTZ
  Basis Set: (AUG-CC-PVTZ AUX)
    Blend: AUG-CC-PVTZ-JKFIT

    Orbital Energies [Eh]
    ---------------------

    Doubly Occupied:

       1A    -25.833701     2A     -1.076021     3A     -0.180956
       4A     -0.180950     5A     -0.180950

  @DF-RHF Final Energy:   -99.45081337162406

   => Energetics <=

    Nuclear Repulsion Energy =              0.0000000000000000
    One-Electron Energy =                -143.9964702596686834
    Two-Electron Energy =                  44.5456568880446184
    Total Energy =                        -99.4508133716240650
 Dipole X            :        -65.3463600           58.8120565           -6.5343035
 Dipole Y            :         -0.0000000            0.0000000           -0.0000000
 Dipole Z            :          0.0000000            0.0000000            0.0000000
 Magnitude           :                                                    6.5343035

    SAPT Results
  --------------------------------------------------------------------------------------------------------
    Electrostatics                151.79779532 [mEh]      95.25455466 [kcal/mol]     398.54505672 [kJ/mol]
      Elst10,r                    152.33427281 [mEh]      95.59119937 [kcal/mol]     399.95357815 [kJ/mol]
      Elst12,r                     -0.53647748 [mEh]      -0.33664470 [kcal/mol]      -1.40852143 [kJ/mol]

    Exchange                        0.99536771 [mEh]       0.62460267 [kcal/mol]       2.61333757 [kJ/mol]
      Exch10                        0.54978737 [mEh]       0.34499678 [kcal/mol]       1.44346654 [kJ/mol]
      Exch10(S^2)                   0.55041284 [mEh]       0.34538927 [kcal/mol]       1.44510870 [kJ/mol]
      Exch11(S^2)                  -0.06930191 [mEh]      -0.04348761 [kcal/mol]      -0.18195214 [kJ/mol]
      Exch12(S^2)                   0.51488225 [mEh]       0.32309349 [kcal/mol]       1.35182317 [kJ/mol]

    Induction                      -5.85219444 [mEh]      -3.67230745 [kcal/mol]     -15.36493438 [kJ/mol]
      Ind20,r                      -5.19508228 [mEh]      -3.25996335 [kcal/mol]     -13.63968666 [kJ/mol]
      Ind22                        -1.53848398 [mEh]      -0.96541327 [kcal/mol]      -4.03928914 [kJ/mol]
      Exch-Ind20,r                  0.31176671 [mEh]       0.19563656 [kcal/mol]       0.81854338 [kJ/mol]
      Exch-Ind22                    0.09232733 [mEh]       0.05793628 [kcal/mol]       0.24240538 [kJ/mol]
      delta HF,r (2)                0.47727779 [mEh]       0.29949633 [kcal/mol]       1.25309265 [kJ/mol]

    Dispersion                     -0.92745731 [mEh]      -0.58198825 [kcal/mol]      -2.43503883 [kJ/mol]
      Disp20                       -0.67162575 [mEh]      -0.42145152 [kcal/mol]      -1.76335317 [kJ/mol]
      Disp21                       -0.01757880 [mEh]      -0.01103086 [kcal/mol]      -0.04615314 [kJ/mol]
      Disp22 (SDQ)                 -0.20578600 [mEh]      -0.12913267 [kcal/mol]      -0.54029108 [kJ/mol]
      Disp22 (T)                   -0.13351936 [mEh]      -0.08378466 [kcal/mol]      -0.35055503 [kJ/mol]
      Est. Disp22 (T)              -0.18401678 [mEh]      -0.11547227 [kcal/mol]      -0.48313598 [kJ/mol]
      Exch-Disp20                   0.15155003 [mEh]       0.09509908 [kcal/mol]       0.39789454 [kJ/mol]

  Total HF                        148.47802239 [mEh]      93.17136570 [kcal/mol]     389.82899407 [kJ/mol]
  Total SAPT0                     147.95794666 [mEh]      92.84501325 [kcal/mol]     388.46353544 [kJ/mol]
  Total SAPT2                     146.42089287 [mEh]      91.88049743 [kcal/mol]     384.42800127 [kJ/mol]
  Total SAPT2+                    146.01351129 [mEh]      91.62486163 [kcal/mol]     383.35842107 [kJ/mol]

  Special recipe for scaled SAPT0 (see Manual):
    Electrostatics sSAPT0         152.33427281 [mEh]      95.59119937 [kcal/mol]     399.95357815 [kJ/mol]
    Exchange sSAPT0                 0.54978737 [mEh]       0.34499678 [kcal/mol]       1.44346654 [kJ/mol]
    Induction sSAPT0               -4.40709942 [mEh]      -2.76549664 [kcal/mol]     -11.57083792 [kJ/mol]
    Dispersion sSAPT0              -0.52059178 [mEh]      -0.32667628 [kcal/mol]      -1.36681354 [kJ/mol]
  Total sSAPT0                    147.95636898 [mEh]      92.84402324 [kcal/mol]     388.45939323 [kJ/mol]
  --------------------------------------------------------------------------------------------------------

*** Psi4 exiting successfully. Buy a developer a beer!
