                               Psi4 1.9 release

  ==> Input File <==

--------------------------------------------------------------------------
MEMORY 60 GB

molecule dimer {
-1 1
F      0.000000     0.000000     0.000000
--
-1 1
F      3.990000     0.000000     0.000000

units ang
no_reorient
no_com
symmetry c1
}

set {
basis        aug-cc-pVTZ
scf_type     df
}

energy("sapt2+")
--------------------------------------------------------------------------

  //              Dimer HF             //
    Molecular point group: c1
  Charge       = -2
  Multiplicity = 1
  Basis Set: AUG-CC-PVTZ
    Blend: AUG-CC-PVTZ
  Basis Set: (AUG-CC-PVTZ AUX)
    Blend: AUG-CC-PVTZ-JKFIT
  @DF-RHF Final Energy:  -198.77157905964893
    Total Energy =                       -198.7715790596489285
 Dipole X            :        -75.4000724           67.8600652           -7.5400072
 Dipole Y            :         -0.0000000            0.0000000           -0.0000000
 Dipole Z            :          0.0000000            0.0000000            0.0000000
 Magnitude           :                                                    7.5400072
  //            Monomer A HF           //
    Molecular point group: c1
  Multiplicity = 1
  Basis Set: AUG-CC-PVTZ
    Blend: AUG-CC-PVTZ
  Basis Set: (AUG-CC-PVTZ AUX)
    Blend: AUG-CC-PVTZ-JKFIT
  @DF-RHF Final Energy:   -99.45080899250912
    Total Energy =                        -99.4508089925091241
  //            Monomer B HF           //
    Molecular point group: c1

    Geometry (in Angstrom), charge = -1, multiplicity = 1:

       Center              X                  Y                   Z               Mass
    ------------   -----------------  -----------------  -----------------  -----------------
      Gh(F)           0.000000000000     0.000000000000     0.000000000000    18.998403162730
         F            3.990000000000     0.000000000000     0.000000000000    18.998403162730

  Charge       = -1
  Multiplicity = 1
  Basis Set: AUG-CC-PVTZ
    Blend: AUG-CC-PVTZ
  Basis Set: (AUG-CC-PVTZ AUX)
    Blend: AUG-CC-PVTZ-JKFIT

    Orbital Energies [Eh]
    ---------------------

    Doubly Occupied:

       1A    -25.833708     2A     -1.076031     3A     -0.180959
       4A     -0.180959     5A     -0.180957

  @DF-RHF Final Energy:   -99.45080899250870

   => Energetics <=

    Nuclear Repulsion Energy =              0.0000000000000000
    One-Electron Energy =                -143.9963904224295561
    Two-Electron Energy =                  44.5455814299208583
    Total Energy =                        -99.4508089925086978
 Dipole X            :        -75.4002043           67.8600652           -7.5401391
 Dipole Y            :         -0.0000000            0.0000000           -0.0000000
 Dipole Z            :          0.0000000            0.0000000            0.0000000
 Magnitude           :                                                    7.5401391

    SAPT Results
  --------------------------------------------------------------------------------------------------------
    Electrostatics                132.40608259 [mEh]      83.08607121 [kcal/mol]     347.63212195 [kJ/mol]
      Elst10,r                    132.44791492 [mEh]      83.11232140 [kcal/mol]     347.74195272 [kJ/mol]
      Elst12,r                     -0.04183233 [mEh]      -0.02625018 [kcal/mol]      -0.10983077 [kJ/mol]

    Exchange                        0.18322652 [mEh]       0.11497638 [kcal/mol]       0.48106116 [kJ/mol]
      Exch10                        0.09168319 [mEh]       0.05753207 [kcal/mol]       0.24071418 [kJ/mol]
      Exch10(S^2)                   0.09174977 [mEh]       0.05757385 [kcal/mol]       0.24088898 [kJ/mol]
      Exch11(S^2)                  -0.01921142 [mEh]      -0.01205535 [kcal/mol]      -0.05043957 [kJ/mol]
      Exch12(S^2)                   0.11075475 [mEh]       0.06949965 [kcal/mol]       0.29078655 [kJ/mol]

    Induction                      -3.31755148 [mEh]      -2.08179498 [kcal/mol]      -8.71023021 [kJ/mol]
      Ind20,r                      -2.85474570 [mEh]      -1.79137997 [kcal/mol]      -7.49513380 [kJ/mol]
      Ind22                        -0.83971398 [mEh]      -0.52692848 [kcal/mol]      -2.20466875 [kJ/mol]
      Exch-Ind20,r                  0.07763216 [mEh]       0.04871491 [kcal/mol]       0.20382320 [kJ/mol]
      Exch-Ind22                    0.02283524 [mEh]       0.01432933 [kcal/mol]       0.05995392 [kJ/mol]
      delta HF,r (2)                0.27644080 [mEh]       0.17346922 [kcal/mol]       0.72579522 [kJ/mol]

    Dispersion                     -0.35793481 [mEh]      -0.22460749 [kcal/mol]      -0.93975772 [kJ/mol]
      Disp20                       -0.24121680 [mEh]      -0.15136583 [kcal/mol]      -0.63331463 [kJ/mol]
      Disp21                       -0.01065511 [mEh]      -0.00668618 [kcal/mol]      -0.02797499 [kJ/mol]
      Disp22 (SDQ)                 -0.07476677 [mEh]      -0.04691685 [kcal/mol]      -0.19630012 [kJ/mol]
      Disp22 (T)                   -0.05383356 [mEh]      -0.03378107 [kcal/mol]      -0.14134000 [kJ/mol]
      Est. Disp22 (T)              -0.06721768 [mEh]      -0.04217973 [kcal/mol]      -0.17647999 [kJ/mol]
      Exch-Disp20                   0.03592155 [mEh]       0.02254111 [kcal/mol]       0.09431201 [kJ/mol]

  Total HF                        130.03892537 [mEh]      81.60065763 [kcal/mol]     341.41715152 [kJ/mol]
  Total SAPT0                     129.83363011 [mEh]      81.47183291 [kcal/mol]     340.87814890 [kJ/mol]
  Total SAPT2                     129.06646237 [mEh]      80.99042789 [kcal/mol]     338.86395028 [kJ/mol]
  Total SAPT2+                    128.91382282 [mEh]      80.89464512 [kcal/mol]     338.46319518 [kJ/mol]

  Special recipe for scaled SAPT0 (see Manual):
    Electrostatics sSAPT0         132.44791492 [mEh]      83.11232140 [kcal/mol]     347.74195272 [kJ/mol]
    Exchange sSAPT0                 0.09168319 [mEh]       0.05753207 [kcal/mol]       0.24071418 [kJ/mol]
    Induction sSAPT0               -2.50084163 [mEh]      -1.56930181 [kcal/mol]      -6.56595879 [kJ/mol]
    Dispersion sSAPT0              -0.20537340 [mEh]      -0.12887376 [kcal/mol]      -0.53920780 [kJ/mol]
  Total sSAPT0                    129.83338308 [mEh]      81.47167789 [kcal/mol]     340.87750031 [kJ/mol]
  --------------------------------------------------------------------------------------------------------

*** Psi4 exiting successfully. Buy a developer a beer!
