                               Psi4 1.9 release

  ==> Input File <==

--------------------------------------------------------------------------
MEMORY 60 GB

molecule dimer {
-1 1
F      0.000000     0.000000     0.000000
--
-1 1
F      3.192000     0.000000     0.000000

units ang
no_reorient
no_com
symmetry c1
}

set {
basis        aug-cc-pVTZ
scf_type     df
}

energy("sapt2+")
--------------------------------------------------------------------------

  //              Dimer HF             //
    Molecular point group: c1
  Charge       = -2
  Multiplicity = 1
  Basis Set: AUG-CC-PVTZ
    Blend: AUG-CC-PVTZ
  Basis Set: (AUG-CC-PVTZ AUX)
    Blend: AUG-CC-PVTZ-JKFIT
  @DF-RHF Final Energy:  -198.74193102665910
    Total Energy =                       -198.7419310266590742
 Dipole X            :        -60.3200579           54.2880521           -6.0320058
 Dipole Y            :         -0.0000000            0.0000000           -0.0000000
 Dipole Z            :          0.0000000            0.0000000            0.0000000
 Magnitude           :                                                    6.0320058
  //            Monomer A HF           //
    Molecular point group: c1
  Multiplicity = 1
  Basis Set: AUG-CC-PVTZ
    Blend: AUG-CC-PVTZ
  Basis Set: (AUG-CC-PVTZ AUX)
    Blend: AUG-CC-PVTZ-JKFIT
  @DF-RHF Final Energy:   -99.45081702252232
    Total Energy =                        -99.4508170225223154
  //            Monomer B HF           //
    Molecular point group: c1

    Geometry (in Angstrom), charge = -1, multiplicity = 1:

       Center              X                  Y                   Z               Mass
    ------------   -----------------  -----------------  -----------------  -----------------
      Gh(F)           0.000000000000     0.000000000000     0.000000000000    18.998403162730
         F            3.192000000000     0.000000000000     0.000000000000    18.998403162730

  Charge       = -1
  Multiplicity = 1
  Basis Set: AUG-CC-PVTZ
    Blend: AUG-CC-PVTZ
  Basis Set: (AUG-CC-PVTZ AUX)
    Blend: AUG-CC-PVTZ-JKFIT

    Orbital Energies [Eh]
    ---------------------

    Doubly Occupied:

       1A    -25.833700     2A     -1.076016     3A     -0.180952
       4A     -0.180947     5A     -0.180947

  @DF-RHF Final Energy:   -99.45081702252288

   => Energetics <=

    Nuclear Repulsion Energy =              0.0000000000000000
    One-Electron Energy =                -143.9965098948198374
    Two-Electron Energy =                  44.5456928722969607
    Total Energy =                        -99.4508170225228696
 Dipole X            :        -60.3195812           54.2880521           -6.0315291
 Dipole Y            :         -0.0000000            0.0000000           -0.0000000
 Dipole Z            :          0.0000000            0.0000000            0.0000000
 Magnitude           :                                                    6.0315291

    SAPT Results
  --------------------------------------------------------------------------------------------------------
    Electrostatics                163.15217776 [mEh]     102.37953721 [kcal/mol]     428.35598371 [kJ/mol]
      Elst10,r                    164.31466525 [mEh]     103.10900912 [kcal/mol]     431.40809417 [kJ/mol]
      Elst12,r                     -1.16248748 [mEh]      -0.72947191 [kcal/mol]      -3.05211046 [kJ/mol]

    Exchange                        2.28250774 [mEh]       1.43229523 [kcal/mol]       5.99272324 [kJ/mol]
      Exch10                        1.33429970 [mEh]       0.83728570 [kcal/mol]       3.50320338 [kJ/mol]
      Exch10(S^2)                   1.33601189 [mEh]       0.83836012 [kcal/mol]       3.50769875 [kJ/mol]
      Exch11(S^2)                  -0.13210570 [mEh]      -0.08289758 [kcal/mol]      -0.34684348 [kJ/mol]
      Exch12(S^2)                   1.08031374 [mEh]       0.67790711 [kcal/mol]       2.83636334 [kJ/mol]

    Induction                      -7.88977973 [mEh]      -4.95091153 [kcal/mol]     -20.71461382 [kJ/mol]
      Ind20,r                      -7.15826796 [mEh]      -4.49188096 [kcal/mol]     -18.79402994 [kJ/mol]
      Ind22                        -2.14508443 [mEh]      -1.34606080 [kcal/mol]      -5.63191840 [kJ/mol]
      Exch-Ind20,r                  0.67158684 [mEh]       0.42142710 [kcal/mol]       1.76325100 [kJ/mol]
      Exch-Ind22                    0.20125126 [mEh]       0.12628707 [kcal/mol]       0.52838512 [kJ/mol]
      delta HF,r (2)                0.54073456 [mEh]       0.33931606 [kcal/mol]       1.41969840 [kJ/mol]

    Dispersion                     -1.54937098 [mEh]      -0.97224497 [kcal/mol]      -4.06787295 [kJ/mol]
      Disp20                       -1.17138605 [mEh]      -0.73505584 [kcal/mol]      -3.07547365 [kJ/mol]
      Disp21                       -0.01606183 [mEh]      -0.01007895 [kcal/mol]      -0.04217033 [kJ/mol]
      Disp22 (SDQ)                 -0.34350251 [mEh]      -0.21555108 [kcal/mol]      -0.90186572 [kJ/mol]
      Disp22 (T)                   -0.25908770 [mEh]      -0.16257999 [kcal/mol]      -0.68023466 [kJ/mol]
      Est. Disp22 (T)              -0.33160789 [mEh]      -0.20808709 [kcal/mol]      -0.87063639 [kJ/mol]
      Exch-Disp20                   0.31318730 [mEh]       0.19652800 [kcal/mol]       0.82227314 [kJ/mol]

  Total HF                        159.70301839 [mEh]     100.21515703 [kcal/mol]     419.30021701 [kJ/mol]
  Total SAPT0                     158.84481963 [mEh]      99.67662918 [kcal/mol]     417.04701649 [kJ/mol]
  Total SAPT2                     156.68670702 [mEh]      98.32239307 [kcal/mol]     411.38089261 [kJ/mol]
  Total SAPT2+                    155.99553479 [mEh]      97.88867595 [kcal/mol]     409.56622017 [kJ/mol]

  Special recipe for scaled SAPT0 (see Manual):
    Electrostatics sSAPT0         164.31466525 [mEh]     103.10900912 [kcal/mol]     431.40809417 [kJ/mol]
    Exchange sSAPT0                 1.33429970 [mEh]       0.83728570 [kcal/mol]       3.50320338 [kJ/mol]
    Induction sSAPT0               -5.94852531 [mEh]      -3.73275599 [kcal/mol]     -15.61785106 [kJ/mol]
    Dispersion sSAPT0              -0.85940133 [mEh]      -0.53928247 [kcal/mol]      -2.25635787 [kJ/mol]
  Total sSAPT0                    158.84103830 [mEh]      99.67425636 [kcal/mol]     417.03708861 [kJ/mol]
  --------------------------------------------------------------------------------------------------------

*** Psi4 exiting successfully. Buy a developer a beer!
