                               Psi4 1.9 release

  ==> Input File <==

--------------------------------------------------------------------------
MEMORY 60 GB

molecule dimer {
-1 1
F      0.000000     0.000000     0.000000
--
-1 1
F      2.660000     0.000000     0.000000

units ang
no_reorient
no_com
symmetry c1
}

set {
basis        aug-cc-pVTZ
scf_type     df
}

energy("sapt2+")
--------------------------------------------------------------------------

  //              Dimer HF             //
    Molecular point group: c1
  Charge       = -2
  Multiplicity = 1
  Basis Set: AUG-CC-PVTZ
    Blend: AUG-CC-PVTZ
  Basis Set: (AUG-CC-PVTZ AUX)
    Blend: AUG-CC-PVTZ-JKFIT
  @DF-RHF Final Energy:  -198.71300655935653
    Total Energy =                       -198.7130065593565291
 Dipole X            :        -50.2667149           45.2400434           -5.0266715
 Dipole Y            :          0.0000000            0.0000000            0.0000000
 Dipole Z            :         -0.0000000            0.0000000           -0.0000000
 Magnitude           :                                                    5.0266715
  //            Monomer A HF           //
    Molecular point group: c1
  Multiplicity = 1
  Basis Set: AUG-CC-PVTZ
    Blend: AUG-CC-PVTZ
  Basis Set: (AUG-CC-PVTZ AUX)
    Blend: AUG-CC-PVTZ-JKFIT
  @DF-RHF Final Energy:   -99.45082343412363
    Total Energy =                        -99.4508234341236346
  //            Monomer B HF           //
    Molecular point group: c1

    Geometry (in Angstrom), charge = -1, multiplicity = 1:

       Center              X                  Y                   Z               Mass
    ------------   -----------------  -----------------  -----------------  -----------------
      Gh(F)           0.000000000000     0.000000000000     0.000000000000    18.998403162730
         F            2.660000000000     0.000000000000     0.000000000000    18.998403162730

  Charge       = -1
  Multiplicity = 1
  Basis Set: AUG-CC-PVTZ
    Blend: AUG-CC-PVTZ
  Basis Set: (AUG-CC-PVTZ AUX)
    Blend: AUG-CC-PVTZ-JKFIT

    Orbital Energies [Eh]
    ---------------------

    Doubly Occupied:

       1A    -25.833696     2A     -1.076012     3A     -0.180956
       4A     -0.180943     5A     -0.180943

  @DF-RHF Final Energy:   -99.45082343412170

   => Energetics <=

    Nuclear Repulsion Energy =              0.0000000000000000
    One-Electron Energy =                -143.9965444634407277
    Two-Electron Energy =                  44.5457210293190329
    Total Energy =                        -99.4508234341217019
 Dipole X            :        -50.2671394           45.2400434           -5.0270959
 Dipole Y            :         -0.0000000            0.0000000           -0.0000000
 Dipole Z            :          0.0000000            0.0000000            0.0000000
 Magnitude           :                                                    5.0270959

    SAPT Results
  --------------------------------------------------------------------------------------------------------
    Electrostatics                187.47765396 [mEh]     117.64400398 [kcal/mol]     492.22251266 [kJ/mol]
      Elst10,r                    191.80692106 [mEh]     120.36066010 [kcal/mol]     503.58900186 [kJ/mol]
      Elst12,r                     -4.32926710 [mEh]      -2.71665612 [kcal/mol]     -11.36648919 [kJ/mol]

    Exchange                       11.95712218 [mEh]       7.50320745 [kcal/mol]      31.39341995 [kJ/mol]
      Exch10                        7.95483513 [mEh]       4.99173441 [kcal/mol]      20.88541676 [kJ/mol]
      Exch10(S^2)                   7.95631337 [mEh]       4.99266202 [kcal/mol]      20.88929787 [kJ/mol]
      Exch11(S^2)                  -0.50995732 [mEh]      -0.32000305 [kcal/mol]      -1.33889275 [kJ/mol]
      Exch12(S^2)                   4.51224436 [mEh]       2.83147609 [kcal/mol]      11.84689595 [kJ/mol]

    Induction                     -14.76541531 [mEh]      -9.26543799 [kcal/mol]     -38.76659255 [kJ/mol]
      Ind20,r                     -14.64492522 [mEh]      -9.18982932 [kcal/mol]     -38.45024588 [kJ/mol]
      Ind22                        -4.82740384 [mEh]      -3.02924165 [kcal/mol]     -12.67434705 [kJ/mol]
      Exch-Ind20,r                  3.59019669 [mEh]       2.25288244 [kcal/mol]       9.42606012 [kJ/mol]
      Exch-Ind22                    1.18343584 [mEh]       0.74261720 [kcal/mol]       3.10711036 [kJ/mol]
      delta HF,r (2)               -0.06671877 [mEh]      -0.04186666 [kcal/mol]      -0.17517011 [kJ/mol]

    Dispersion                     -4.28265202 [mEh]      -2.68740472 [kcal/mol]     -11.24410134 [kJ/mol]
      Disp20                       -3.75904272 [mEh]      -2.35883492 [kcal/mol]      -9.86936530 [kJ/mol]
      Disp21                        0.08744812 [mEh]       0.05487452 [kcal/mol]       0.22959500 [kJ/mol]
      Disp22 (SDQ)                 -0.94278204 [mEh]      -0.59160466 [kcal/mol]      -2.47527391 [kJ/mol]
      Disp22 (T)                   -0.79310054 [mEh]      -0.49767810 [kcal/mol]      -2.08228519 [kJ/mol]
      Est. Disp22 (T)              -0.99281838 [mEh]      -0.62300294 [kcal/mol]      -2.60664430 [kJ/mol]
      Exch-Disp20                   1.32454300 [mEh]       0.83116328 [kcal/mol]       3.47758717 [kJ/mol]

  Total HF                        188.64030889 [mEh]     118.37358096 [kcal/mol]     495.27506275 [kJ/mol]
  Total SAPT0                     186.20580917 [mEh]     116.84590933 [kcal/mol]     488.88328462 [kJ/mol]
  Total SAPT2                     182.23486111 [mEh]     114.35410180 [kcal/mol]     478.45756194 [kJ/mol]
  Total SAPT2+                    180.38670881 [mEh]     113.19436872 [kcal/mol]     473.60523873 [kJ/mol]

  Special recipe for scaled SAPT0 (see Manual):
    Electrostatics sSAPT0         191.80692106 [mEh]     120.36066010 [kcal/mol]     503.58900186 [kJ/mol]
    Exchange sSAPT0                 7.95483513 [mEh]       4.99173441 [kcal/mol]      20.88541676 [kJ/mol]
    Induction sSAPT0              -11.12344804 [mEh]      -6.98006903 [kcal/mol]     -29.20460882 [kJ/mol]
    Dispersion sSAPT0              -2.43523786 [mEh]      -1.52813483 [kcal/mol]      -6.39371612 [kJ/mol]
  Total sSAPT0                    186.20307029 [mEh]     116.84419065 [kcal/mol]     488.87609368 [kJ/mol]
  --------------------------------------------------------------------------------------------------------

*** Psi4 exiting successfully. Buy a developer a beer!
