                               Psi4 1.9 release

  ==> Input File <==

--------------------------------------------------------------------------
MEMORY 60 GB

molecule dimer {
-1 1
F      0.000000     0.000000     0.000000
--
-1 1
F      5.320000     0.000000     0.000000

units ang
no_reorient
no_com
symmetry c1
}

set {
basis        aug-cc-pVTZ
scf_type     df
}

energy("sapt2+")
--------------------------------------------------------------------------

  //              Dimer HF             //
    Molecular point group: c1
  Charge       = -2
  Multiplicity = 1
  Basis Set: AUG-CC-PVTZ
    Blend: AUG-CC-PVTZ
  Basis Set: (AUG-CC-PVTZ AUX)
    Blend: AUG-CC-PVTZ-JKFIT
  @DF-RHF Final Energy:  -198.80288039795107
    Total Energy =                       -198.8028803979510712
 Dipole X            :       -100.5334299           90.4800869          -10.0533430
 Dipole Y            :         -0.0000000            0.0000000           -0.0000000
 Dipole Z            :         -0.0000000            0.0000000           -0.0000000
 Magnitude           :                                                   10.0533430
  //            Monomer A HF           //
    Molecular point group: c1
  Multiplicity = 1
  Basis Set: AUG-CC-PVTZ
    Blend: AUG-CC-PVTZ
  Basis Set: (AUG-CC-PVTZ AUX)
    Blend: AUG-CC-PVTZ-JKFIT
  @DF-RHF Final Energy:   -99.45080651896393
    Total Energy =                        -99.4508065189639296
  //            Monomer B HF           //
    Molecular point group: c1

    Geometry (in Angstrom), charge = -1, multiplicity = 1:

       Center              X                  Y                   Z               Mass
    ------------   -----------------  -----------------  -----------------  -----------------
      Gh(F)           0.000000000000     0.000000000000     0.000000000000    18.998403162730
         F            5.320000000000     0.000000000000     0.000000000000    18.998403162730

  Charge       = -1
  Multiplicity = 1
  Basis Set: AUG-CC-PVTZ
    Blend: AUG-CC-PVTZ
  Basis Set: (AUG-CC-PVTZ AUX)
    Blend: AUG-CC-PVTZ-JKFIT

    Orbital Energies [Eh]
    ---------------------

    Doubly Occupied:

       1A    -25.833700     2A     -1.076032     3A     -0.180960
       4A     -0.180960     5A     -0.180954

  @DF-RHF Final Energy:   -99.45080651896434

   => Energetics <=

    Nuclear Repulsion Energy =              0.0000000000000000
    One-Electron Energy =                -143.9964013252658219
    Two-Electron Energy =                  44.5455948063014873
    Total Energy =                        -99.4508065189643276
 Dipole X            :       -100.5332032           90.4800869          -10.0531163
 Dipole Y            :         -0.0000000            0.0000000           -0.0000000
 Dipole Z            :         -0.0000000            0.0000000           -0.0000000
 Magnitude           :                                                   10.0531163

    SAPT Results
  --------------------------------------------------------------------------------------------------------
    Electrostatics                 99.53055503 [mEh]      62.45636621 [kcal/mol]     261.31743624 [kJ/mol]
      Elst10,r                     99.47521355 [mEh]      62.42163891 [kcal/mol]     261.17213718 [kJ/mol]
      Elst12,r                      0.05534149 [mEh]       0.03472731 [kcal/mol]       0.14529906 [kJ/mol]

    Exchange                        0.00137258 [mEh]       0.00086131 [kcal/mol]       0.00360371 [kJ/mol]
      Exch10                        0.00052763 [mEh]       0.00033110 [kcal/mol]       0.00138530 [kJ/mol]
      Exch10(S^2)                   0.00052780 [mEh]       0.00033120 [kcal/mol]       0.00138574 [kJ/mol]
      Exch11(S^2)                  -0.00075469 [mEh]      -0.00047358 [kcal/mol]      -0.00198145 [kJ/mol]
      Exch12(S^2)                   0.00159964 [mEh]       0.00100379 [kcal/mol]       0.00419985 [kJ/mol]

    Induction                      -0.94334334 [mEh]      -0.59195688 [kcal/mol]      -2.47674759 [kJ/mol]
      Ind20,r                      -0.78561652 [mEh]      -0.49298181 [kcal/mol]      -2.06263589 [kJ/mol]
      Ind22                        -0.20116687 [mEh]      -0.12623412 [kcal/mol]      -0.52816355 [kJ/mol]
      Exch-Ind20,r                  0.00361138 [mEh]       0.00226618 [kcal/mol]       0.00948168 [kJ/mol]
      Exch-Ind22                    0.00092474 [mEh]       0.00058028 [kcal/mol]       0.00242790 [kJ/mol]
      delta HF,r (2)                0.03890394 [mEh]       0.02441259 [kcal/mol]       0.10214227 [kJ/mol]

    Dispersion                     -0.04740945 [mEh]      -0.02974988 [kcal/mol]      -0.12447348 [kJ/mol]
      Disp20                       -0.03153174 [mEh]      -0.01978647 [kcal/mol]      -0.08278658 [kJ/mol]
      Disp21                       -0.00164908 [mEh]      -0.00103481 [kcal/mol]      -0.00432966 [kJ/mol]
      Disp22 (SDQ)                 -0.00715531 [mEh]      -0.00449003 [kcal/mol]      -0.01878627 [kJ/mol]
      Disp22 (T)                   -0.00727679 [mEh]      -0.00456625 [kcal/mol]      -0.01910521 [kJ/mol]
      Est. Disp22 (T)              -0.00815861 [mEh]      -0.00511960 [kcal/mol]      -0.02142042 [kJ/mol]
      Exch-Disp20                   0.00108530 [mEh]       0.00068103 [kcal/mol]       0.00284944 [kJ/mol]

  Total HF                         98.73263998 [mEh]      61.95566696 [kcal/mol]     259.22251055 [kJ/mol]
  Total SAPT0                      98.70219353 [mEh]      61.93656152 [kcal/mol]     259.14257341 [kJ/mol]
  Total SAPT2                      98.55813783 [mEh]      61.84616520 [kcal/mol]     258.76435522 [kJ/mol]
  Total SAPT2+                     98.54117483 [mEh]      61.83552076 [kcal/mol]     258.71981887 [kJ/mol]

  Special recipe for scaled SAPT0 (see Manual):
    Electrostatics sSAPT0          99.47521355 [mEh]      62.42163891 [kcal/mol]     261.17213718 [kJ/mol]
    Exchange sSAPT0                 0.00052763 [mEh]       0.00033110 [kcal/mol]       0.00138530 [kJ/mol]
    Induction sSAPT0               -0.74310120 [mEh]      -0.46630304 [kcal/mol]      -1.95101194 [kJ/mol]
    Dispersion sSAPT0              -0.03044645 [mEh]      -0.01910543 [kcal/mol]      -0.07993714 [kJ/mol]
  Total sSAPT0                     98.70219353 [mEh]      61.93656152 [kcal/mol]     259.14257341 [kJ/mol]
  --------------------------------------------------------------------------------------------------------

*** Psi4 exiting successfully. Buy a developer a beer!
