                               Psi4 1.9 release

  ==> Input File <==

--------------------------------------------------------------------------
MEMORY 60 GB

molecule dimer {
-1 1
F      0.000000     0.000000     0.000000
--
-1 1
F      2.926000     0.000000     0.000000

units ang
no_reorient
no_com
symmetry c1
}

set {
basis        aug-cc-pVTZ
scf_type     df
}

energy("sapt2+")
--------------------------------------------------------------------------

  //              Dimer HF             //
    Molecular point group: c1
  Charge       = -2
  Multiplicity = 1
  Basis Set: AUG-CC-PVTZ
    Blend: AUG-CC-PVTZ
  Basis Set: (AUG-CC-PVTZ AUX)
    Blend: AUG-CC-PVTZ-JKFIT
  @DF-RHF Final Energy:  -198.72884586569145
    Total Energy =                       -198.7288458656914827
 Dipole X            :        -55.2933864           49.7640478           -5.5293386
 Dipole Y            :          0.0000000            0.0000000            0.0000000
 Dipole Z            :         -0.0000000            0.0000000           -0.0000000
 Magnitude           :                                                    5.5293386
  //            Monomer A HF           //
    Molecular point group: c1
  Multiplicity = 1
  Basis Set: AUG-CC-PVTZ
    Blend: AUG-CC-PVTZ
  Basis Set: (AUG-CC-PVTZ AUX)
    Blend: AUG-CC-PVTZ-JKFIT
  @DF-RHF Final Energy:   -99.45081633892202
    Total Energy =                        -99.4508163389220243
  //            Monomer B HF           //
    Molecular point group: c1

    Geometry (in Angstrom), charge = -1, multiplicity = 1:

       Center              X                  Y                   Z               Mass
    ------------   -----------------  -----------------  -----------------  -----------------
      Gh(F)           0.000000000000     0.000000000000     0.000000000000    18.998403162730
         F            2.926000000000     0.000000000000     0.000000000000    18.998403162730

  Charge       = -1
  Multiplicity = 1
  Basis Set: AUG-CC-PVTZ
    Blend: AUG-CC-PVTZ
  Basis Set: (AUG-CC-PVTZ AUX)
    Blend: AUG-CC-PVTZ-JKFIT

    Orbital Energies [Eh]
    ---------------------

    Doubly Occupied:

       1A    -25.833703     2A     -1.076016     3A     -0.180949
       4A     -0.180949     5A     -0.180949

  @DF-RHF Final Energy:   -99.45081633892354

   => Energetics <=

    Nuclear Repulsion Energy =              0.0000000000000000
    One-Electron Energy =                -143.9964981788909313
    Two-Electron Energy =                  44.5456818399673864
    Total Energy =                        -99.4508163389235449
 Dipole X            :        -55.2932492           49.7640478           -5.5292014
 Dipole Y            :          0.0000000            0.0000000            0.0000000
 Dipole Z            :         -0.0000000            0.0000000           -0.0000000
 Magnitude           :                                                    5.5292014

    SAPT Results
  --------------------------------------------------------------------------------------------------------
    Electrostatics                175.32883485 [mEh]     110.02050490 [kcal/mol]     460.32579248 [kJ/mol]
      Elst10,r                    177.63467516 [mEh]     111.46744153 [kcal/mol]     466.37977537 [kJ/mol]
      Elst12,r                     -2.30584031 [mEh]      -1.44693664 [kcal/mol]      -6.05398289 [kJ/mol]

    Exchange                        5.22264520 [mEh]       3.27725934 [kcal/mol]      13.71205307 [kJ/mol]
      Exch10                        3.24864165 [mEh]       2.03855341 [kcal/mol]       8.52930749 [kJ/mol]
      Exch10(S^2)                   3.25234240 [mEh]       2.04087567 [kcal/mol]       8.53902381 [kJ/mol]
      Exch11(S^2)                  -0.25576515 [mEh]      -0.16049505 [kcal/mol]      -0.67151131 [kJ/mol]
      Exch12(S^2)                   2.22976869 [mEh]       1.39920098 [kcal/mol]       5.85425689 [kJ/mol]

    Induction                     -10.74344103 [mEh]      -6.74161103 [kcal/mol]     -28.20690054 [kJ/mol]
      Ind20,r                     -10.05221290 [mEh]      -6.30785883 [kcal/mol]     -26.39208134 [kJ/mol]
      Ind22                        -3.11354333 [mEh]      -1.95377794 [kcal/mol]      -8.17460688 [kJ/mol]
      Exch-Ind20,r                  1.50646127 [mEh]       0.94531872 [kcal/mol]       3.95521353 [kJ/mol]
      Exch-Ind22                    0.46660695 [mEh]       0.29280028 [kcal/mol]       1.22507639 [kJ/mol]
      delta HF,r (2)                0.44924697 [mEh]       0.28190673 [kcal/mol]       1.17949776 [kJ/mol]

    Dispersion                     -2.57887551 [mEh]      -1.61826881 [kcal/mol]      -6.77083672 [kJ/mol]
      Disp20                       -2.08394799 [mEh]      -1.30769711 [kcal/mol]      -5.47140469 [kJ/mol]
      Disp21                        0.00454927 [mEh]       0.00285471 [kcal/mol]       0.01194411 [kJ/mol]
      Disp22 (SDQ)                 -0.57124778 [mEh]      -0.35846339 [kcal/mol]      -1.49981083 [kJ/mol]
      Disp22 (T)                   -0.46173309 [mEh]      -0.28974189 [kcal/mol]      -1.21228006 [kJ/mol]
      Est. Disp22 (T)              -0.57338868 [mEh]      -0.35980683 [kcal/mol]      -1.50543176 [kJ/mol]
      Exch-Disp20                   0.64515966 [mEh]       0.40484380 [kcal/mol]       1.69386646 [kJ/mol]

  Total HF                        172.78681215 [mEh]     108.42536157 [kcal/mol]     453.65171281 [kJ/mol]
  Total SAPT0                     171.34802383 [mEh]     107.52250826 [kcal/mol]     449.87417458 [kJ/mol]
  Total SAPT2                     168.36925069 [mEh]     105.65329990 [kcal/mol]     442.05340679 [kJ/mol]
  Total SAPT2+                    167.22916351 [mEh]     104.93788439 [kcal/mol]     439.06010830 [kJ/mol]

  Special recipe for scaled SAPT0 (see Manual):
    Electrostatics sSAPT0         177.63467516 [mEh]     111.46744153 [kcal/mol]     466.37977537 [kJ/mol]
    Exchange sSAPT0                 3.24864165 [mEh]       2.03855341 [kcal/mol]       8.52930749 [kJ/mol]
    Induction sSAPT0               -8.10164129 [mEh]      -5.08385666 [kcal/mol]     -21.27085628 [kJ/mol]
    Dispersion sSAPT0              -1.44098815 [mEh]      -0.90423372 [kcal/mol]      -3.78331387 [kJ/mol]
  Total sSAPT0                    171.34068737 [mEh]     107.51790457 [kcal/mol]     449.85491271 [kJ/mol]
  --------------------------------------------------------------------------------------------------------

*** Psi4 exiting successfully. Buy a developer a beer!
