                               Psi4 1.9 release

  ==> Input File <==

--------------------------------------------------------------------------
MEMORY 60 GB

molecule dimer {
-1 1
F      0.000000     0.000000     0.000000
--
-1 1
Cl     3.454000     0.000000     0.000000

units ang
no_reorient
no_com
symmetry c1
}

set {
basis        aug-cc-pVTZ
scf_type     df
}

energy("sapt2+")
--------------------------------------------------------------------------

  //              Dimer HF             //
    Molecular point group: c1
  Charge       = -2
  Multiplicity = 1
  Basis Set: AUG-CC-PVTZ
    Blend: AUG-CC-PVTZ
  Basis Set: (AUG-CC-PVTZ AUX)
    Blend: AUG-CC-PVTZ-JKFIT
  @DF-RHF Final Energy:  -558.88031393092081
    Total Energy =                       -558.8803139309208063
 Dipole X            :       -117.8933003          110.9609386           -6.9323616
 Dipole Y            :          0.0000000            0.0000000            0.0000000
 Dipole Z            :         -0.0000000            0.0000000           -0.0000000
 Magnitude           :                                                    6.9323616
  //            Monomer A HF           //
    Molecular point group: c1
  Multiplicity = 1
  Basis Set: AUG-CC-PVTZ
    Blend: AUG-CC-PVTZ
  Basis Set: (AUG-CC-PVTZ AUX)
    Blend: AUG-CC-PVTZ-JKFIT
  @DF-RHF Final Energy:   -99.45081877392548
    Total Energy =                        -99.4508187739254765
  //            Monomer B HF           //
    Molecular point group: c1

    Geometry (in Angstrom), charge = -1, multiplicity = 1:

       Center              X                  Y                   Z               Mass
    ------------   -----------------  -----------------  -----------------  -----------------
      Gh(F)           0.000000000000     0.000000000000     0.000000000000    18.998403162730
         CL           3.454000000000     0.000000000000     0.000000000000    34.968852682000

  Charge       = -1
  Multiplicity = 1
  Basis Set: AUG-CC-PVTZ
    Blend: AUG-CC-PVTZ
  Basis Set: (AUG-CC-PVTZ AUX)
    Blend: AUG-CC-PVTZ-JKFIT

    Orbital Energies [Eh]
    ---------------------

    Doubly Occupied:

       1A   -104.505988     2A    -10.229746     3A     -7.695777
       4A     -7.695777     5A     -7.695772     6A     -0.733508
       7A     -0.150338     8A     -0.150331     9A     -0.150331

  @DF-RHF Final Energy:  -459.57348634262917

   => Energetics <=

    Nuclear Repulsion Energy =              0.0000000000000000
    One-Electron Energy =                -641.1318353494500570
    Two-Electron Energy =                 181.5583490068208903
    Total Energy =                       -459.5734863426291668
 Dipole X            :       -117.4880213          110.9609386           -6.5270827
 Dipole Y            :          0.0000000            0.0000000            0.0000000
 Dipole Z            :         -0.0000000            0.0000000           -0.0000000
 Magnitude           :                                                    6.5270827

    SAPT Results
  --------------------------------------------------------------------------------------------------------
    Electrostatics                149.12250629 [mEh]      93.57578545 [kcal/mol]     391.52108632 [kJ/mol]
      Elst10,r                    150.39948991 [mEh]      94.37710477 [kcal/mol]     394.87380637 [kJ/mol]
      Elst12,r                     -1.27698363 [mEh]      -0.80131932 [kcal/mol]      -3.35272005 [kJ/mol]

    Exchange                        3.51101651 [mEh]       2.20319612 [kcal/mol]       9.21817258 [kJ/mol]
      Exch10                        2.45816415 [mEh]       1.54252130 [kcal/mol]       6.45390910 [kJ/mol]
      Exch10(S^2)                   2.46135367 [mEh]       1.54452275 [kcal/mol]       6.46228317 [kJ/mol]
      Exch11(S^2)                  -0.02315330 [mEh]      -0.01452892 [kcal/mol]      -0.06078898 [kJ/mol]
      Exch12(S^2)                   1.07600566 [mEh]       0.67520374 [kcal/mol]       2.82505246 [kJ/mol]

    Induction                     -10.63920531 [mEh]      -6.67620212 [kcal/mol]     -27.93322969 [kJ/mol]
      Ind20,r                     -11.57352331 [mEh]      -7.26249552 [kcal/mol]     -30.38628126 [kJ/mol]
      Ind22                        -2.12073797 [mEh]      -1.33078317 [kcal/mol]      -5.56799677 [kJ/mol]
      Exch-Ind20,r                  1.89914966 [mEh]       1.19173440 [kcal/mol]       4.98621674 [kJ/mol]
      Exch-Ind22                    0.34800110 [mEh]       0.21837398 [kcal/mol]       0.91367675 [kJ/mol]
      delta HF,r (2)                0.80790522 [mEh]       0.50696818 [kcal/mol]       2.12115485 [kJ/mol]

    Dispersion                     -2.38238254 [mEh]      -1.49496761 [kcal/mol]      -6.25494449 [kJ/mol]
      Disp20                       -2.26435753 [mEh]      -1.42090581 [kcal/mol]      -5.94506989 [kJ/mol]
      Disp21                        0.10880290 [mEh]       0.06827485 [kcal/mol]       0.28566198 [kJ/mol]
      Disp22 (SDQ)                 -0.29985885 [mEh]      -0.18816427 [kcal/mol]      -0.78727930 [kJ/mol]
      Disp22 (T)                   -0.46880613 [mEh]      -0.29418029 [kcal/mol]      -1.23085033 [kJ/mol]
      Est. Disp22 (T)              -0.56323419 [mEh]      -0.35343479 [kcal/mol]      -1.47877117 [kJ/mol]
      Exch-Disp20                   0.63626514 [mEh]       0.39926240 [kcal/mol]       1.67051388 [kJ/mol]

  Total HF                        143.99118563 [mEh]      90.35583313 [kcal/mol]     378.04880580 [kJ/mol]
  Total SAPT0                     142.36309323 [mEh]      89.33418972 [kcal/mol]     373.77424979 [kJ/mol]
  Total SAPT2                     140.36622509 [mEh]      88.08113604 [kcal/mol]     368.53147320 [kJ/mol]
  Total SAPT2+                    139.61193495 [mEh]      87.60781183 [kcal/mol]     366.55108471 [kJ/mol]

  Special recipe for scaled SAPT0 (see Manual):
    Electrostatics sSAPT0         150.39948991 [mEh]      94.37710477 [kcal/mol]     394.87380637 [kJ/mol]
    Exchange sSAPT0                 2.45816415 [mEh]       1.54252130 [kcal/mol]       6.45390910 [kJ/mol]
    Induction sSAPT0               -8.87384184 [mEh]      -5.56841982 [kcal/mol]     -23.29826854 [kJ/mol]
    Dispersion sSAPT0              -1.63056269 [mEh]      -1.02319353 [kcal/mol]      -4.28104174 [kJ/mol]
  Total sSAPT0                    142.35324954 [mEh]      89.32801271 [kcal/mol]     373.74840518 [kJ/mol]
  --------------------------------------------------------------------------------------------------------

*** Psi4 exiting successfully. Buy a developer a beer!
