                               Psi4 1.9 release

  ==> Input File <==

--------------------------------------------------------------------------
MEMORY 60 GB

molecule dimer {
-1 1
F      0.000000     0.000000     0.000000
--
-1 1
Cl     3.140000     0.000000     0.000000

units ang
no_reorient
no_com
symmetry c1
}

set {
basis        aug-cc-pVTZ
scf_type     df
}

energy("sapt2+")
--------------------------------------------------------------------------

  //              Dimer HF             //
    Molecular point group: c1
  Charge       = -2
  Multiplicity = 1
  Basis Set: AUG-CC-PVTZ
    Blend: AUG-CC-PVTZ
  Basis Set: (AUG-CC-PVTZ AUX)
    Blend: AUG-CC-PVTZ-JKFIT
  @DF-RHF Final Energy:  -558.86787884913088
    Total Energy =                       -558.8678788491308751
 Dipole X            :       -107.2862685          100.8735806           -6.4126879
 Dipole Y            :         -0.0000000            0.0000000           -0.0000000
 Dipole Z            :         -0.0000000            0.0000000           -0.0000000
 Magnitude           :                                                    6.4126879
  //            Monomer A HF           //
    Molecular point group: c1
  Multiplicity = 1
  Basis Set: AUG-CC-PVTZ
    Blend: AUG-CC-PVTZ
  Basis Set: (AUG-CC-PVTZ AUX)
    Blend: AUG-CC-PVTZ-JKFIT
  @DF-RHF Final Energy:   -99.45082098696203
    Total Energy =                        -99.4508209869620288
  //            Monomer B HF           //
    Molecular point group: c1

    Geometry (in Angstrom), charge = -1, multiplicity = 1:

       Center              X                  Y                   Z               Mass
    ------------   -----------------  -----------------  -----------------  -----------------
      Gh(F)           0.000000000000     0.000000000000     0.000000000000    18.998403162730
         CL           3.140000000000     0.000000000000     0.000000000000    34.968852682000

  Charge       = -1
  Multiplicity = 1
  Basis Set: AUG-CC-PVTZ
    Blend: AUG-CC-PVTZ
  Basis Set: (AUG-CC-PVTZ AUX)
    Blend: AUG-CC-PVTZ-JKFIT

    Orbital Energies [Eh]
    ---------------------

    Doubly Occupied:

       1A   -104.506015     2A    -10.229752     3A     -7.695785
       4A     -7.695785     5A     -7.695776     6A     -0.733507
       7A     -0.150339     8A     -0.150329     9A     -0.150329

  @DF-RHF Final Energy:  -459.57348798349119

   => Energetics <=

    Nuclear Repulsion Energy =              0.0000000000000000
    One-Electron Energy =                -641.1317408825262874
    Two-Electron Energy =                 181.5582528990350966
    Total Energy =                       -459.5734879834911908
 Dipole X            :       -106.8070493          100.8735806           -5.9334687
 Dipole Y            :         -0.0000000            0.0000000           -0.0000000
 Dipole Z            :         -0.0000000            0.0000000           -0.0000000
 Magnitude           :                                                    5.9334687

    SAPT Results
  --------------------------------------------------------------------------------------------------------
    Electrostatics                159.45563655 [mEh]     100.05992258 [kcal/mol]     418.65071607 [kJ/mol]
      Elst10,r                    162.00767240 [mEh]     101.66134926 [kcal/mol]     425.35108529 [kJ/mol]
      Elst12,r                     -2.55203585 [mEh]      -1.60142668 [kcal/mol]      -6.70036921 [kJ/mol]

    Exchange                        8.85625487 [mEh]       5.55738383 [kcal/mol]      23.25209394 [kJ/mol]
      Exch10                        6.50701179 [mEh]       4.08321155 [kcal/mol]      17.08415711 [kJ/mol]
      Exch10(S^2)                   6.50661287 [mEh]       4.08296122 [kcal/mol]      17.08310974 [kJ/mol]
      Exch11(S^2)                  -0.02345270 [mEh]      -0.01471679 [kcal/mol]      -0.06157507 [kJ/mol]
      Exch12(S^2)                   2.37269577 [mEh]       1.48888908 [kcal/mol]       6.22951190 [kJ/mol]

    Induction                     -14.80274462 [mEh]      -9.28886249 [kcal/mol]     -38.86460065 [kJ/mol]
      Ind20,r                     -17.41622002 [mEh]     -10.92884306 [kcal/mol]     -45.72627936 [kJ/mol]
      Ind22                        -3.74488540 [mEh]      -2.34995107 [kcal/mol]      -9.83219526 [kJ/mol]
      Exch-Ind20,r                  4.77485818 [mEh]       2.99626874 [kcal/mol]      12.53638842 [kJ/mol]
      Exch-Ind22                    1.02670365 [mEh]       0.64426627 [kcal/mol]       2.69561006 [kJ/mol]
      delta HF,r (2)                0.55679897 [mEh]       0.34939663 [kcal/mol]       1.46187549 [kJ/mol]

    Dispersion                     -4.02041878 [mEh]      -2.52285087 [kcal/mol]     -10.55560806 [kJ/mol]
      Disp20                       -4.14654754 [mEh]      -2.60199786 [kcal/mol]     -10.88675906 [kJ/mol]
      Disp21                        0.25452226 [mEh]       0.15971513 [kcal/mol]       0.66824811 [kJ/mol]
      Disp22 (SDQ)                 -0.49803707 [mEh]      -0.31252298 [kcal/mol]      -1.30759615 [kJ/mol]
      Disp22 (T)                   -0.81122749 [mEh]      -0.50905293 [kcal/mol]      -2.12987748 [kJ/mol]
      Est. Disp22 (T)              -0.98767928 [mEh]      -0.61977811 [kcal/mol]      -2.59315160 [kJ/mol]
      Exch-Disp20                   1.35732285 [mEh]       0.85173295 [kcal/mol]       3.56365064 [kJ/mol]

  Total HF                        156.43012132 [mEh]      98.16138311 [kcal/mol]     410.70722695 [kJ/mol]
  Total SAPT0                     153.64089663 [mEh]      96.41111820 [kcal/mol]     403.38411853 [kJ/mol]
  Total SAPT2                     150.71992210 [mEh]      94.57817900 [kcal/mol]     395.71510095 [kJ/mol]
  Total SAPT2+                    149.48872801 [mEh]      93.80559305 [kcal/mol]     392.48260131 [kJ/mol]

  Special recipe for scaled SAPT0 (see Manual):
    Electrostatics sSAPT0         162.00767240 [mEh]     101.66134926 [kcal/mol]     425.35108529 [kJ/mol]
    Exchange sSAPT0                 6.50701179 [mEh]       4.08321155 [kcal/mol]      17.08415711 [kJ/mol]
    Induction sSAPT0              -12.08368457 [mEh]      -7.58262655 [kcal/mol]     -31.72570947 [kJ/mol]
    Dispersion sSAPT0              -2.78897502 [mEh]      -1.75010825 [kcal/mol]      -7.32245291 [kJ/mol]
  Total sSAPT0                    153.64202460 [mEh]      96.41182601 [kcal/mol]     403.38708001 [kJ/mol]
  --------------------------------------------------------------------------------------------------------

*** Psi4 exiting successfully. Buy a developer a beer!
