                               Psi4 1.9 release

  ==> Input File <==

--------------------------------------------------------------------------
MEMORY 60 GB

molecule dimer {
-1 1
F      0.000000     0.000000     0.000000
--
-1 1
Cl     4.396000     0.000000     0.000000

units ang
no_reorient
no_com
symmetry c1
}

set {
basis        aug-cc-pVTZ
scf_type     df
}

energy("sapt2+")
--------------------------------------------------------------------------

  //              Dimer HF             //
    Molecular point group: c1
  Charge       = -2
  Multiplicity = 1
  Basis Set: AUG-CC-PVTZ
    Blend: AUG-CC-PVTZ
  Basis Set: (AUG-CC-PVTZ AUX)
    Blend: AUG-CC-PVTZ-JKFIT
  @DF-RHF Final Energy:  -558.90772672038725
    Total Energy =                       -558.9077267203872452
 Dipole X            :       -149.7919910          141.2230128           -8.5689782
 Dipole Y            :         -0.0000000            0.0000000           -0.0000000
 Dipole Z            :         -0.0000000            0.0000000           -0.0000000
 Magnitude           :                                                    8.5689782
  //            Monomer A HF           //
    Molecular point group: c1
  Multiplicity = 1
  Basis Set: AUG-CC-PVTZ
    Blend: AUG-CC-PVTZ
  Basis Set: (AUG-CC-PVTZ AUX)
    Blend: AUG-CC-PVTZ-JKFIT
  @DF-RHF Final Energy:   -99.45081044424415
    Total Energy =                        -99.4508104442441550
  //            Monomer B HF           //
    Molecular point group: c1

    Geometry (in Angstrom), charge = -1, multiplicity = 1:

       Center              X                  Y                   Z               Mass
    ------------   -----------------  -----------------  -----------------  -----------------
      Gh(F)           0.000000000000     0.000000000000     0.000000000000    18.998403162730
         CL           4.396000000000     0.000000000000     0.000000000000    34.968852682000

  Charge       = -1
  Multiplicity = 1
  Basis Set: AUG-CC-PVTZ
    Blend: AUG-CC-PVTZ
  Basis Set: (AUG-CC-PVTZ AUX)
    Blend: AUG-CC-PVTZ-JKFIT

    Orbital Energies [Eh]
    ---------------------

    Doubly Occupied:

       1A   -104.505966     2A    -10.229742     3A     -7.695771
       4A     -7.695771     5A     -7.695770     6A     -0.733511
       7A     -0.150336     8A     -0.150335     9A     -0.150335

  @DF-RHF Final Energy:  -459.57348334638851

   => Energetics <=

    Nuclear Repulsion Energy =              0.0000000000000000
    One-Electron Energy =                -641.1318902433278026
    Two-Electron Energy =                 181.5584068969392888
    Total Energy =                       -459.5734833463885138
 Dipole X            :       -149.5302009          141.2230128           -8.3071881
 Dipole Y            :         -0.0000000            0.0000000           -0.0000000
 Dipole Z            :         -0.0000000            0.0000000           -0.0000000
 Magnitude           :                                                    8.3071881

    SAPT Results
  --------------------------------------------------------------------------------------------------------
    Electrostatics                120.04475117 [mEh]      75.32921864 [kcal/mol]     315.17745077 [kJ/mol]
      Elst10,r                    120.13129438 [mEh]      75.38352532 [kcal/mol]     315.40466994 [kJ/mol]
      Elst12,r                     -0.08654321 [mEh]      -0.05430669 [kcal/mol]      -0.22721917 [kJ/mol]

    Exchange                        0.19929361 [mEh]       0.12505863 [kcal/mol]       0.52324530 [kJ/mol]
      Exch10                        0.12512885 [mEh]       0.07851954 [kcal/mol]       0.32852575 [kJ/mol]
      Exch10(S^2)                   0.12527179 [mEh]       0.07860923 [kcal/mol]       0.32890103 [kJ/mol]
      Exch11(S^2)                  -0.00796572 [mEh]      -0.00499856 [kcal/mol]      -0.02091399 [kJ/mol]
      Exch12(S^2)                   0.08213048 [mEh]       0.05153765 [kcal/mol]       0.21563354 [kJ/mol]

    Induction                      -4.28081156 [mEh]      -2.68624981 [kcal/mol]     -11.23926919 [kJ/mol]
      Ind20,r                      -4.27351954 [mEh]      -2.68167400 [kcal/mol]     -11.22012401 [kJ/mol]
      Ind22                        -0.61494854 [mEh]      -0.38588603 [kcal/mol]      -1.61454717 [kJ/mol]
      Exch-Ind20,r                  0.16324106 [mEh]       0.10243531 [kcal/mol]       0.42858934 [kJ/mol]
      Exch-Ind22                    0.02348997 [mEh]       0.01474018 [kcal/mol]       0.06167291 [kJ/mol]
      delta HF,r (2)                0.42092550 [mEh]       0.26413474 [kcal/mol]       1.10513975 [kJ/mol]

    Dispersion                     -0.51466963 [mEh]      -0.32296007 [kcal/mol]      -1.35126494 [kJ/mol]
      Disp20                       -0.42322655 [mEh]      -0.26557867 [kcal/mol]      -1.11118114 [kJ/mol]
      Disp21                        0.01377062 [mEh]       0.00864119 [kcal/mol]       0.03615475 [kJ/mol]
      Disp22 (SDQ)                 -0.06185273 [mEh]      -0.03881317 [kcal/mol]      -0.16239432 [kJ/mol]
      Disp22 (T)                   -0.08722113 [mEh]      -0.05473209 [kcal/mol]      -0.22899905 [kJ/mol]
      Est. Disp22 (T)              -0.10734108 [mEh]      -0.06735755 [kcal/mol]      -0.28182397 [kJ/mol]
      Exch-Disp20                   0.06398011 [mEh]       0.04014812 [kcal/mol]       0.16797974 [kJ/mol]

  Total HF                        116.56707025 [mEh]      73.14694091 [kcal/mol]     306.04680077 [kJ/mol]
  Total SAPT0                     116.20782381 [mEh]      72.92151037 [kcal/mol]     305.10359937 [kJ/mol]
  Total SAPT2                     115.60398678 [mEh]      72.54259691 [kcal/mol]     303.51822549 [kJ/mol]
  Total SAPT2+                    115.44856359 [mEh]      72.44506739 [kcal/mol]     303.11016195 [kJ/mol]

  Special recipe for scaled SAPT0 (see Manual):
    Electrostatics sSAPT0         120.13129438 [mEh]      75.38352532 [kcal/mol]     315.40466994 [kJ/mol]
    Exchange sSAPT0                 0.12512885 [mEh]       0.07851954 [kcal/mol]       0.32852575 [kJ/mol]
    Induction sSAPT0               -3.68991113 [mEh]      -2.31545419 [kcal/mol]      -9.68786035 [kJ/mol]
    Dispersion sSAPT0              -0.35946520 [mEh]      -0.22556782 [kcal/mol]      -0.94377575 [kJ/mol]
  Total sSAPT0                    116.20704690 [mEh]      72.92102285 [kcal/mol]     305.10155960 [kJ/mol]
  --------------------------------------------------------------------------------------------------------

*** Psi4 exiting successfully. Buy a developer a beer!
