                               Psi4 1.9 release

  ==> Input File <==

--------------------------------------------------------------------------
MEMORY 60 GB

molecule dimer {
-1 1
F      0.000000     0.000000     0.000000
--
-1 1
Cl     3.768000     0.000000     0.000000

units ang
no_reorient
no_com
symmetry c1
}

set {
basis        aug-cc-pVTZ
scf_type     df
}

energy("sapt2+")
--------------------------------------------------------------------------

  //              Dimer HF             //
    Molecular point group: c1
  Charge       = -2
  Multiplicity = 1
  Basis Set: AUG-CC-PVTZ
    Blend: AUG-CC-PVTZ
  Basis Set: (AUG-CC-PVTZ AUX)
    Blend: AUG-CC-PVTZ-JKFIT
  @DF-RHF Final Energy:  -558.89072184040151
    Total Energy =                       -558.8907218404015111
 Dipole X            :       -128.5166614          121.0482967           -7.4683647
 Dipole Y            :          0.0000000            0.0000000            0.0000000
 Dipole Z            :          0.0000000            0.0000000            0.0000000
 Magnitude           :                                                    7.4683647
  //            Monomer A HF           //
    Molecular point group: c1
  Multiplicity = 1
  Basis Set: AUG-CC-PVTZ
    Blend: AUG-CC-PVTZ
  Basis Set: (AUG-CC-PVTZ AUX)
    Blend: AUG-CC-PVTZ-JKFIT
  @DF-RHF Final Energy:   -99.45081567423259
    Total Energy =                        -99.4508156742325866
  //            Monomer B HF           //
    Molecular point group: c1

    Geometry (in Angstrom), charge = -1, multiplicity = 1:

       Center              X                  Y                   Z               Mass
    ------------   -----------------  -----------------  -----------------  -----------------
      Gh(F)           0.000000000000     0.000000000000     0.000000000000    18.998403162730
         CL           3.768000000000     0.000000000000     0.000000000000    34.968852682000

  Charge       = -1
  Multiplicity = 1
  Basis Set: AUG-CC-PVTZ
    Blend: AUG-CC-PVTZ
  Basis Set: (AUG-CC-PVTZ AUX)
    Blend: AUG-CC-PVTZ-JKFIT

    Orbital Energies [Eh]
    ---------------------

    Doubly Occupied:

       1A   -104.505974     2A    -10.229744     3A     -7.695774
       4A     -7.695774     5A     -7.695771     6A     -0.733510
       7A     -0.150336     8A     -0.150334     9A     -0.150334

  @DF-RHF Final Energy:  -459.57348395028356

   => Energetics <=

    Nuclear Repulsion Energy =              0.0000000000000000
    One-Electron Energy =                -641.1318620662360672
    Two-Electron Energy =                 181.5583781159524790
    Total Energy =                       -459.5734839502836167
 Dipole X            :       -128.1688644          121.0482967           -7.1205677
 Dipole Y            :         -0.0000000            0.0000000           -0.0000000
 Dipole Z            :          0.0000000            0.0000000            0.0000000
 Magnitude           :                                                    7.1205677

    SAPT Results
  --------------------------------------------------------------------------------------------------------
    Electrostatics                138.61793843 [mEh]      86.98406960 [kcal/mol]     363.94134721 [kJ/mol]
      Elst10,r                    139.22026431 [mEh]      87.36203480 [kcal/mol]     365.52275359 [kJ/mol]
      Elst12,r                     -0.60232588 [mEh]      -0.37796520 [kcal/mol]      -1.58140638 [kJ/mol]

    Exchange                        1.37640296 [mEh]       0.86370590 [kcal/mol]       3.61374548 [kJ/mol]
      Exch10                        0.92301090 [mEh]       0.57919808 [kcal/mol]       2.42336477 [kJ/mol]
      Exch10(S^2)                   0.92443239 [mEh]       0.58009008 [kcal/mol]       2.42709691 [kJ/mol]
      Exch11(S^2)                  -0.01869461 [mEh]      -0.01173105 [kcal/mol]      -0.04908270 [kJ/mol]
      Exch12(S^2)                   0.47208668 [mEh]       0.29623886 [kcal/mol]       1.23946340 [kJ/mol]

    Induction                      -7.75269698 [mEh]      -4.86489080 [kcal/mol]     -20.35470311 [kJ/mol]
      Ind20,r                      -8.10713603 [mEh]      -5.08730467 [kcal/mol]     -21.28528272 [kJ/mol]
      Ind22                        -1.31759324 [mEh]      -0.82680224 [kcal/mol]      -3.45934057 [kJ/mol]
      Exch-Ind20,r                  0.80227186 [mEh]       0.50343319 [kcal/mol]       2.10636449 [kJ/mol]
      Exch-Ind22                    0.13038735 [mEh]       0.08181930 [kcal/mol]       0.34233194 [kJ/mol]
      delta HF,r (2)                0.73937308 [mEh]       0.46396361 [kcal/mol]       1.94122375 [kJ/mol]

    Dispersion                     -1.41512938 [mEh]      -0.88800709 [kcal/mol]      -3.71542167 [kJ/mol]
      Disp20                       -1.26115547 [mEh]      -0.79138701 [kcal/mol]      -3.31116324 [kJ/mol]
      Disp21                        0.04977238 [mEh]       0.03123264 [kcal/mol]       0.13067737 [kJ/mol]
      Disp22 (SDQ)                 -0.17846982 [mEh]      -0.11199151 [kcal/mol]      -0.46857246 [kJ/mol]
      Disp22 (T)                   -0.26555395 [mEh]      -0.16663762 [kcal/mol]      -0.69721180 [kJ/mol]
      Est. Disp22 (T)              -0.32210299 [mEh]      -0.20212268 [kcal/mol]      -0.84568130 [kJ/mol]
      Exch-Disp20                   0.29682653 [mEh]       0.18626146 [kcal/mol]       0.77931795 [kJ/mol]

  Total HF                        133.57778411 [mEh]      83.82132502 [kcal/mol]     350.70842388 [kJ/mol]
  Total SAPT0                     132.61345517 [mEh]      83.21619947 [kcal/mol]     348.17657858 [kJ/mol]
  Total SAPT2                     131.27731547 [mEh]      82.37775915 [kcal/mol]     344.66854428 [kJ/mol]
  Total SAPT2+                    130.82651503 [mEh]      82.09487760 [kcal/mol]     343.48496790 [kJ/mol]

  Special recipe for scaled SAPT0 (see Manual):
    Electrostatics sSAPT0         139.22026431 [mEh]      87.36203480 [kcal/mol]     365.52275359 [kJ/mol]
    Exchange sSAPT0                 0.92301090 [mEh]       0.57919808 [kcal/mol]       2.42336477 [kJ/mol]
    Induction sSAPT0               -6.56918635 [mEh]      -4.12222667 [kcal/mol]     -17.24739639 [kJ/mol]
    Dispersion sSAPT0              -0.96569613 [mEh]      -0.60598347 [kcal/mol]      -2.53543483 [kJ/mol]
  Total sSAPT0                    132.60839273 [mEh]      83.21302274 [kcal/mol]     348.16328714 [kJ/mol]
  --------------------------------------------------------------------------------------------------------

*** Psi4 exiting successfully. Buy a developer a beer!
