                               Psi4 1.9 release

  ==> Input File <==

--------------------------------------------------------------------------
MEMORY 60 GB

molecule dimer {
-1 1
F      0.000000     0.000000     0.000000
--
-1 1
Cl     4.710000     0.000000     0.000000

units ang
no_reorient
no_com
symmetry c1
}

set {
basis        aug-cc-pVTZ
scf_type     df
}

energy("sapt2+")
--------------------------------------------------------------------------

  //              Dimer HF             //
    Molecular point group: c1
  Charge       = -2
  Multiplicity = 1
  Basis Set: AUG-CC-PVTZ
    Blend: AUG-CC-PVTZ
  Basis Set: (AUG-CC-PVTZ AUX)
    Blend: AUG-CC-PVTZ-JKFIT
  @DF-RHF Final Energy:  -558.91481816283226
    Total Energy =                       -558.9148181628322618
 Dipole X            :       -160.4402404          151.3103709           -9.1298695
 Dipole Y            :         -0.0000000            0.0000000           -0.0000000
 Dipole Z            :          0.0000000            0.0000000            0.0000000
 Magnitude           :                                                    9.1298695
  //            Monomer A HF           //
    Molecular point group: c1
  Multiplicity = 1
  Basis Set: AUG-CC-PVTZ
    Blend: AUG-CC-PVTZ
  Basis Set: (AUG-CC-PVTZ AUX)
    Blend: AUG-CC-PVTZ-JKFIT
  @DF-RHF Final Energy:   -99.45081008797402
    Total Energy =                        -99.4508100879740198
  //            Monomer B HF           //
    Molecular point group: c1

    Geometry (in Angstrom), charge = -1, multiplicity = 1:

       Center              X                  Y                   Z               Mass
    ------------   -----------------  -----------------  -----------------  -----------------
      Gh(F)           0.000000000000     0.000000000000     0.000000000000    18.998403162730
         CL           4.710000000000     0.000000000000     0.000000000000    34.968852682000

  Charge       = -1
  Multiplicity = 1
  Basis Set: AUG-CC-PVTZ
    Blend: AUG-CC-PVTZ
  Basis Set: (AUG-CC-PVTZ AUX)
    Blend: AUG-CC-PVTZ-JKFIT

    Orbital Energies [Eh]
    ---------------------

    Doubly Occupied:

       1A   -104.505966     2A    -10.229743     3A     -7.695772
       4A     -7.695772     5A     -7.695771     6A     -0.733511
       7A     -0.150337     8A     -0.150336     9A     -0.150336

  @DF-RHF Final Energy:  -459.57348280302620

   => Energetics <=

    Nuclear Repulsion Energy =              0.0000000000000000
    One-Electron Energy =                -641.1318771600033415
    Two-Electron Energy =                 181.5583943569771748
    Total Energy =                       -459.5734828030261951
 Dipole X            :       -160.2110303          151.3103709           -8.9006595
 Dipole Y            :         -0.0000000            0.0000000           -0.0000000
 Dipole Z            :          0.0000000            0.0000000            0.0000000
 Magnitude           :                                                    8.9006595

    SAPT Results
  --------------------------------------------------------------------------------------------------------
    Electrostatics                112.22997596 [mEh]      70.42537316 [kcal/mol]     294.65976129 [kJ/mol]
      Elst10,r                    112.23722290 [mEh]      70.42992068 [kcal/mol]     294.67878813 [kJ/mol]
      Elst12,r                     -0.00724694 [mEh]      -0.00454753 [kcal/mol]      -0.01902685 [kJ/mol]

    Exchange                        0.07162972 [mEh]       0.04494833 [kcal/mol]       0.18806381 [kJ/mol]
      Exch10                        0.04415050 [mEh]       0.02770486 [kcal/mol]       0.11591711 [kJ/mol]
      Exch10(S^2)                   0.04419114 [mEh]       0.02773036 [kcal/mol]       0.11602381 [kJ/mol]
      Exch11(S^2)                  -0.00463131 [mEh]      -0.00290619 [kcal/mol]      -0.01215950 [kJ/mol]
      Exch12(S^2)                   0.03211053 [mEh]       0.02014966 [kcal/mol]       0.08430619 [kJ/mol]

    Induction                      -3.23959720 [mEh]      -2.03287793 [kcal/mol]      -8.50556128 [kJ/mol]
      Ind20,r                      -3.17662700 [mEh]      -1.99336354 [kcal/mol]      -8.34023305 [kJ/mol]
      Ind22                        -0.44381614 [mEh]      -0.27849883 [kcal/mol]      -1.16523912 [kJ/mol]
      Exch-Ind20,r                  0.07776065 [mEh]       0.04879554 [kcal/mol]       0.20416056 [kJ/mol]
      Exch-Ind22                    0.01086417 [mEh]       0.00681737 [kcal/mol]       0.02852389 [kJ/mol]
      delta HF,r (2)                0.29222112 [mEh]       0.18337152 [kcal/mol]       0.76722646 [kJ/mol]

    Dispersion                     -0.32134790 [mEh]      -0.20164885 [kcal/mol]      -0.84369879 [kJ/mol]
      Disp20                       -0.25732911 [mEh]      -0.16147645 [kcal/mol]      -0.67561748 [kJ/mol]
      Disp21                        0.00841590 [mEh]       0.00528106 [kcal/mol]       0.02209593 [kJ/mol]
      Disp22 (SDQ)                 -0.03644033 [mEh]      -0.02286665 [kcal/mol]      -0.09567408 [kJ/mol]
      Disp22 (T)                   -0.05584098 [mEh]      -0.03504074 [kcal/mol]      -0.14661048 [kJ/mol]
      Est. Disp22 (T)              -0.06568343 [mEh]      -0.04121698 [kcal/mol]      -0.17245183 [kJ/mol]
      Exch-Disp20                   0.02968908 [mEh]       0.01863018 [kcal/mol]       0.07794867 [kJ/mol]

  Total HF                        109.47472817 [mEh]      68.69642906 [kcal/mol]     287.42585921 [kJ/mol]
  Total SAPT0                     109.24708814 [mEh]      68.55358279 [kcal/mol]     286.82819039 [kJ/mol]
  Total SAPT2                     108.83436845 [mEh]      68.29459728 [kcal/mol]     285.74459500 [kJ/mol]
  Total SAPT2+                    108.74066058 [mEh]      68.23579470 [kcal/mol]     285.49856503 [kJ/mol]

  Special recipe for scaled SAPT0 (see Manual):
    Electrostatics sSAPT0         112.23722290 [mEh]      70.42992068 [kcal/mol]     294.67878813 [kJ/mol]
    Exchange sSAPT0                 0.04415050 [mEh]       0.02770486 [kcal/mol]       0.11591711 [kJ/mol]
    Induction sSAPT0               -2.80685956 [mEh]      -1.76133097 [kcal/mol]      -7.36940877 [kJ/mol]
    Dispersion sSAPT0              -0.22772186 [mEh]      -0.14289763 [kcal/mol]      -0.59788367 [kJ/mol]
  Total sSAPT0                    109.24679197 [mEh]      68.55339694 [kcal/mol]     286.82741281 [kJ/mol]
  --------------------------------------------------------------------------------------------------------

*** Psi4 exiting successfully. Buy a developer a beer!
