                               Psi4 1.9 release

  ==> Input File <==

--------------------------------------------------------------------------
MEMORY 60 GB

molecule dimer {
-1 1
F      0.000000     0.000000     0.000000
--
-1 1
Cl     4.082000     0.000000     0.000000

units ang
no_reorient
no_com
symmetry c1
}

set {
basis        aug-cc-pVTZ
scf_type     df
}

energy("sapt2+")
--------------------------------------------------------------------------

  //              Dimer HF             //
    Molecular point group: c1
  Charge       = -2
  Multiplicity = 1
  Basis Set: AUG-CC-PVTZ
    Blend: AUG-CC-PVTZ
  Basis Set: (AUG-CC-PVTZ AUX)
    Blend: AUG-CC-PVTZ-JKFIT
  @DF-RHF Final Energy:  -558.89975509206579
    Total Energy =                       -558.8997550920657886
 Dipole X            :       -139.1503352          131.1356548           -8.0146805
 Dipole Y            :         -0.0000000            0.0000000           -0.0000000
 Dipole Z            :          0.0000000            0.0000000            0.0000000
 Magnitude           :                                                    8.0146805
  //            Monomer A HF           //
    Molecular point group: c1
  Multiplicity = 1
  Basis Set: AUG-CC-PVTZ
    Blend: AUG-CC-PVTZ
  Basis Set: (AUG-CC-PVTZ AUX)
    Blend: AUG-CC-PVTZ-JKFIT
  @DF-RHF Final Energy:   -99.45081169589626
    Total Energy =                        -99.4508116958962631
  //            Monomer B HF           //
    Molecular point group: c1

    Geometry (in Angstrom), charge = -1, multiplicity = 1:

       Center              X                  Y                   Z               Mass
    ------------   -----------------  -----------------  -----------------  -----------------
      Gh(F)           0.000000000000     0.000000000000     0.000000000000    18.998403162730
         CL           4.082000000000     0.000000000000     0.000000000000    34.968852682000

  Charge       = -1
  Multiplicity = 1
  Basis Set: AUG-CC-PVTZ
    Blend: AUG-CC-PVTZ
  Basis Set: (AUG-CC-PVTZ AUX)
    Blend: AUG-CC-PVTZ-JKFIT

    Orbital Energies [Eh]
    ---------------------

    Doubly Occupied:

       1A   -104.505968     2A    -10.229742     3A     -7.695772
       4A     -7.695772     5A     -7.695771     6A     -0.733511
       7A     -0.150336     8A     -0.150335     9A     -0.150335

  @DF-RHF Final Energy:  -459.57348350238539

   => Energetics <=

    Nuclear Repulsion Energy =              0.0000000000000000
    One-Electron Energy =                -641.1318821622435280
    Two-Electron Energy =                 181.5583986598581419
    Total Energy =                       -459.5734835023853861
 Dipole X            :       -138.8495102          131.1356548           -7.7138554
 Dipole Y            :         -0.0000000            0.0000000           -0.0000000
 Dipole Z            :          0.0000000            0.0000000            0.0000000
 Magnitude           :                                                    7.7138554

    SAPT Results
  --------------------------------------------------------------------------------------------------------
    Electrostatics                128.84018445 [mEh]      80.84843634 [kcal/mol]     338.26985766 [kJ/mol]
      Elst10,r                    129.09708739 [mEh]      81.00964537 [kcal/mol]     338.94435623 [kJ/mol]
      Elst12,r                     -0.25690294 [mEh]      -0.16120903 [kcal/mol]      -0.67449858 [kJ/mol]

    Exchange                        0.53070754 [mEh]       0.33302401 [kcal/mol]       1.39337244 [kJ/mol]
      Exch10                        0.34292498 [mEh]       0.21518867 [kcal/mol]       0.90034941 [kJ/mol]
      Exch10(S^2)                   0.34340114 [mEh]       0.21548747 [kcal/mol]       0.90159958 [kJ/mol]
      Exch11(S^2)                  -0.01282964 [mEh]      -0.00805072 [kcal/mol]      -0.03368422 [kJ/mol]
      Exch12(S^2)                   0.20061220 [mEh]       0.12588605 [kcal/mol]       0.52670725 [kJ/mol]

    Induction                      -5.72472323 [mEh]      -3.59231806 [kcal/mol]     -15.03025876 [kJ/mol]
      Ind20,r                      -5.83460658 [mEh]      -3.66127090 [kcal/mol]     -15.31875746 [kJ/mol]
      Ind22                        -0.87826630 [mEh]      -0.55112042 [kcal/mol]      -2.30588784 [kJ/mol]
      Exch-Ind20,r                  0.35508043 [mEh]       0.22281633 [kcal/mol]       0.93226354 [kJ/mol]
      Exch-Ind22                    0.05344922 [mEh]       0.03353989 [kcal/mol]       0.14033091 [kJ/mol]
      delta HF,r (2)                0.57962000 [mEh]       0.36371704 [kcal/mol]       1.52179210 [kJ/mol]

    Dispersion                     -0.84259617 [mEh]      -0.52873708 [kcal/mol]      -2.21223595 [kJ/mol]
      Disp20                       -0.71982037 [mEh]      -0.45169410 [kcal/mol]      -1.88988812 [kJ/mol]
      Disp21                        0.02490383 [mEh]       0.01562739 [kcal/mol]       0.06538500 [kJ/mol]
      Disp22 (SDQ)                 -0.10521774 [mEh]      -0.06602513 [kcal/mol]      -0.27624914 [kJ/mol]
      Disp22 (T)                   -0.13990591 [mEh]      -0.08779229 [kcal/mol]      -0.36732293 [kJ/mol]
      Est. Disp22 (T)              -0.18041390 [mEh]      -0.11321143 [kcal/mol]      -0.47367662 [kJ/mol]
      Exch-Disp20                   0.13795200 [mEh]       0.08656619 [kcal/mol]       0.36219294 [kJ/mol]

  Total HF                        124.54010622 [mEh]      78.15009652 [kcal/mol]     326.98000382 [kJ/mol]
  Total SAPT0                     123.95823785 [mEh]      77.78496860 [kcal/mol]     325.45230864 [kJ/mol]
  Total SAPT2                     123.06430039 [mEh]      77.22401438 [kcal/mol]     323.10527616 [kJ/mol]
  Total SAPT2+                    122.80357258 [mEh]      77.06040521 [kcal/mol]     322.42073539 [kJ/mol]

  Special recipe for scaled SAPT0 (see Manual):
    Electrostatics sSAPT0         129.09708739 [mEh]      81.00964537 [kcal/mol]     338.94435623 [kJ/mol]
    Exchange sSAPT0                 0.34292498 [mEh]       0.21518867 [kcal/mol]       0.90034941 [kJ/mol]
    Induction sSAPT0               -4.90138118 [mEh]      -3.07566312 [kcal/mol]     -12.86857451 [kJ/mol]
    Dispersion sSAPT0              -0.58244143 [mEh]      -0.36548751 [kcal/mol]      -1.52919976 [kJ/mol]
  Total sSAPT0                    123.95618976 [mEh]      77.78368341 [kcal/mol]     325.44693138 [kJ/mol]
  --------------------------------------------------------------------------------------------------------

*** Psi4 exiting successfully. Buy a developer a beer!
