                               Psi4 1.9 release

  ==> Input File <==

--------------------------------------------------------------------------
MEMORY 60 GB

molecule dimer {
-1 1
F      0.000000     0.000000     0.000000
--
-1 1
Cl     6.280000     0.000000     0.000000

units ang
no_reorient
no_com
symmetry c1
}

set {
basis        aug-cc-pVTZ
scf_type     df
}

energy("sapt2+")
--------------------------------------------------------------------------

  //              Dimer HF             //
    Molecular point group: c1
  Charge       = -2
  Multiplicity = 1
  Basis Set: AUG-CC-PVTZ
    Blend: AUG-CC-PVTZ
  Basis Set: (AUG-CC-PVTZ AUX)
    Blend: AUG-CC-PVTZ-JKFIT
  @DF-RHF Final Energy:  -558.94087885256465
    Total Energy =                       -558.9408788525646514
 Dipole X            :       -213.7442229          201.7471612          -11.9970618
 Dipole Y            :          0.0000000            0.0000000            0.0000000
 Dipole Z            :          0.0000000            0.0000000            0.0000000
 Magnitude           :                                                   11.9970618
  //            Monomer A HF           //
    Molecular point group: c1
  Multiplicity = 1
  Basis Set: AUG-CC-PVTZ
    Blend: AUG-CC-PVTZ
  Basis Set: (AUG-CC-PVTZ AUX)
    Blend: AUG-CC-PVTZ-JKFIT
  @DF-RHF Final Energy:   -99.45080684838308
    Total Energy =                        -99.4508068483830954
  //            Monomer B HF           //
    Molecular point group: c1

    Geometry (in Angstrom), charge = -1, multiplicity = 1:

       Center              X                  Y                   Z               Mass
    ------------   -----------------  -----------------  -----------------  -----------------
      Gh(F)           0.000000000000     0.000000000000     0.000000000000    18.998403162730
         CL           6.280000000000     0.000000000000     0.000000000000    34.968852682000

  Charge       = -1
  Multiplicity = 1
  Basis Set: AUG-CC-PVTZ
    Blend: AUG-CC-PVTZ
  Basis Set: (AUG-CC-PVTZ AUX)
    Blend: AUG-CC-PVTZ-JKFIT

    Orbital Energies [Eh]
    ---------------------

    Doubly Occupied:

       1A   -104.505960     2A    -10.229742     3A     -7.695771
       4A     -7.695771     5A     -7.695770     6A     -0.733512
       7A     -0.150337     8A     -0.150337     9A     -0.150337

  @DF-RHF Final Energy:  -459.57348214178347

   => Energetics <=

    Nuclear Repulsion Energy =              0.0000000000000000
    One-Electron Energy =                -641.1319029679772257
    Two-Electron Energy =                 181.5584208261938102
    Total Energy =                       -459.5734821417834155
 Dipole X            :       -213.6148440          201.7471612          -11.8676829
 Dipole Y            :          0.0000000            0.0000000            0.0000000
 Dipole Z            :          0.0000000            0.0000000            0.0000000
 Magnitude           :                                                   11.8676829

    SAPT Results
  --------------------------------------------------------------------------------------------------------
    Electrostatics                 84.28780027 [mEh]      52.89139319 [kcal/mol]     221.29758912 [kJ/mol]
      Elst10,r                     84.26474873 [mEh]      52.87692813 [kcal/mol]     221.23706731 [kJ/mol]
      Elst12,r                      0.02305154 [mEh]       0.01446506 [kcal/mol]       0.06052180 [kJ/mol]

    Exchange                       -0.00040437 [mEh]      -0.00025374 [kcal/mol]      -0.00106167 [kJ/mol]
      Exch10                       -0.00014040 [mEh]      -0.00008810 [kcal/mol]      -0.00036863 [kJ/mol]
      Exch10(S^2)                  -0.00014035 [mEh]      -0.00008807 [kcal/mol]      -0.00036848 [kJ/mol]
      Exch11(S^2)                  -0.00019263 [mEh]      -0.00012088 [kcal/mol]      -0.00050575 [kJ/mol]
      Exch12(S^2)                  -0.00007133 [mEh]      -0.00004476 [kcal/mol]      -0.00018729 [kJ/mol]

    Induction                      -0.96099328 [mEh]      -0.60303239 [kcal/mol]      -2.52308752 [kJ/mol]
      Ind20,r                      -0.89243880 [mEh]      -0.56001380 [kcal/mol]      -2.34309774 [kJ/mol]
      Ind22                        -0.10679956 [mEh]      -0.06701774 [kcal/mol]      -0.28040220 [kJ/mol]
      Exch-Ind20,r                  0.00231468 [mEh]       0.00145249 [kcal/mol]       0.00607720 [kJ/mol]
      Exch-Ind22                    0.00027700 [mEh]       0.00017382 [kcal/mol]       0.00072727 [kJ/mol]
      delta HF,r (2)                0.03565339 [mEh]       0.02237284 [kcal/mol]       0.09360796 [kJ/mol]

    Dispersion                     -0.04338573 [mEh]      -0.02722496 [kcal/mol]      -0.11390921 [kJ/mol]
      Disp20                       -0.03440848 [mEh]      -0.02159165 [kcal/mol]      -0.09033945 [kJ/mol]
      Disp21                        0.00177786 [mEh]       0.00111562 [kcal/mol]       0.00466777 [kJ/mol]
      Disp22 (SDQ)                 -0.00304790 [mEh]      -0.00191259 [kcal/mol]      -0.00800227 [kJ/mol]
      Disp22 (T)                   -0.00780372 [mEh]      -0.00489691 [kcal/mol]      -0.02048866 [kJ/mol]
      Est. Disp22 (T)              -0.00835634 [mEh]      -0.00524368 [kcal/mol]      -0.02193956 [kJ/mol]
      Exch-Disp20                   0.00064913 [mEh]       0.00040734 [kcal/mol]       0.00170430 [kJ/mol]

  Total HF                         83.41013760 [mEh]      52.34065155 [kcal/mol]     218.99328610 [kJ/mol]
  Total SAPT0                      83.37637826 [mEh]      52.31946724 [kcal/mol]     218.90465095 [kJ/mol]
  Total SAPT2                      83.29264327 [mEh]      52.26692275 [kcal/mol]     218.68480478 [kJ/mol]
  Total SAPT2+                     83.28301689 [mEh]      52.26088210 [kcal/mol]     218.65953071 [kJ/mol]

  Special recipe for scaled SAPT0 (see Manual):
    Electrostatics sSAPT0          84.26474873 [mEh]      52.87692813 [kcal/mol]     221.23706731 [kJ/mol]
    Exchange sSAPT0                -0.00014040 [mEh]      -0.00008810 [kcal/mol]      -0.00036863 [kJ/mol]
    Induction sSAPT0               -0.85447073 [mEh]      -0.53618848 [kcal/mol]      -2.24341259 [kJ/mol]
    Dispersion sSAPT0              -0.03375935 [mEh]      -0.02118431 [kcal/mol]      -0.08863515 [kJ/mol]
  Total sSAPT0                     83.37637826 [mEh]      52.31946724 [kcal/mol]     218.90465095 [kJ/mol]
  --------------------------------------------------------------------------------------------------------

*** Psi4 exiting successfully. Buy a developer a beer!
