                               Psi4 1.9 release

  ==> Input File <==

--------------------------------------------------------------------------
MEMORY 60 GB

molecule dimer {
-1 1
F      0.000000     0.000000     0.000000
--
-1 1
Br     4.606000     0.000000     0.000000

units ang
no_reorient
no_com
symmetry c1
}

set {
basis        aug-cc-pVTZ
scf_type     df
}

energy("sapt2+")
--------------------------------------------------------------------------

  //              Dimer HF             //
    Molecular point group: c1
  Charge       = -2
  Multiplicity = 1
  Basis Set: AUG-CC-PVTZ
    Blend: AUG-CC-PVTZ
  Basis Set: (AUG-CC-PVTZ AUX)
    Blend: AUG-CC-PVTZ-JKFIT
  @DF-RHF Final Energy: -2671.87375013021847
    Total Energy =                      -2671.8737501302184683
 Dipole X            :       -313.7239001          304.6427487           -9.0811514
 Dipole Y            :          0.0000000            0.0000000            0.0000000
 Dipole Z            :         -0.0000000            0.0000000           -0.0000000
 Magnitude           :                                                    9.0811514
  //            Monomer A HF           //
    Molecular point group: c1
  Multiplicity = 1
  Basis Set: AUG-CC-PVTZ
    Blend: AUG-CC-PVTZ
  Basis Set: (AUG-CC-PVTZ AUX)
    Blend: AUG-CC-PVTZ-JKFIT
  @DF-RHF Final Energy:   -99.45081104334783
    Total Energy =                        -99.4508110433478265
  //            Monomer B HF           //
    Molecular point group: c1

    Geometry (in Angstrom), charge = -1, multiplicity = 1:

       Center              X                  Y                   Z               Mass
    ------------   -----------------  -----------------  -----------------  -----------------
      Gh(F)           0.000000000000     0.000000000000     0.000000000000    18.998403162730
         BR           4.606000000000     0.000000000000     0.000000000000    78.918337600000

  Charge       = -1
  Multiplicity = 1
  Basis Set: AUG-CC-PVTZ
    Blend: AUG-CC-PVTZ
  Basis Set: (AUG-CC-PVTZ AUX)
    Blend: AUG-CC-PVTZ-JKFIT

    Orbital Energies [Eh]
    ---------------------

    Doubly Occupied:

       1A   -489.720310     2A    -64.860416     3A    -58.214881
       4A    -58.214881     5A    -58.214881     6A     -9.532842
       7A     -7.140181     8A     -7.140181     9A     -7.140181
      10A     -2.881846    11A     -2.881846    12A     -2.881846
      13A     -2.881846    14A     -2.881843    15A     -0.686000
      16A     -0.139337    17A     -0.139336    18A     -0.139336

  @DF-RHF Final Energy: -2572.53366671075855

   => Energetics <=

    Nuclear Repulsion Energy =              0.0000000000000000
    One-Electron Energy =               -3593.6833513290180235
    Two-Electron Energy =                1021.1496846182592435
    Total Energy =                      -2572.5336667107585527
 Dipole X            :       -313.3468155          304.6427487           -8.7040668
 Dipole Y            :         -0.0000000            0.0000000           -0.0000000
 Dipole Z            :         -0.0000000            0.0000000           -0.0000000
 Magnitude           :                                                    8.7040668

    SAPT Results
  --------------------------------------------------------------------------------------------------------
    Electrostatics                114.60046204 [mEh]      71.91287563 [kcal/mol]     300.88347164 [kJ/mol]
      Elst10,r                    114.65077594 [mEh]      71.94444808 [kcal/mol]     301.01557077 [kJ/mol]
      Elst12,r                     -0.05031390 [mEh]      -0.03157245 [kcal/mol]      -0.13209912 [kJ/mol]

    Exchange                        0.17359704 [mEh]       0.10893378 [kcal/mol]       0.45577895 [kJ/mol]
      Exch10                        0.11101462 [mEh]       0.06966272 [kcal/mol]       0.29146884 [kJ/mol]
      Exch10(S^2)                   0.11114613 [mEh]       0.06974525 [kcal/mol]       0.29181414 [kJ/mol]
      Exch11(S^2)                  -0.00380770 [mEh]      -0.00238937 [kcal/mol]      -0.00999711 [kJ/mol]
      Exch12(S^2)                   0.06639012 [mEh]       0.04166043 [kcal/mol]       0.17430723 [kJ/mol]

    Induction                      -4.64393860 [mEh]      -2.91411547 [kcal/mol]     -12.19265912 [kJ/mol]
      Ind20,r                      -4.69500462 [mEh]      -2.94615988 [kcal/mol]     -12.32673293 [kJ/mol]
      Ind22                        -0.63666713 [mEh]      -0.39951466 [kcal/mol]      -1.67156933 [kJ/mol]
      Exch-Ind20,r                  0.19833457 [mEh]       0.12445682 [kcal/mol]       0.52072734 [kJ/mol]
      Exch-Ind22                    0.02689520 [mEh]       0.01687699 [kcal/mol]       0.07061335 [kJ/mol]
      delta HF,r (2)                0.46250338 [mEh]       0.29022525 [kcal/mol]       1.21430245 [kJ/mol]

    Dispersion                     -0.51157900 [mEh]      -0.32102067 [kcal/mol]      -1.34315048 [kJ/mol]
      Disp20                       -0.42513201 [mEh]      -0.26677436 [kcal/mol]      -1.11618394 [kJ/mol]
      Disp21                        0.01807683 [mEh]       0.01134338 [kcal/mol]       0.04746072 [kJ/mol]
      Disp22 (SDQ)                 -0.05968627 [mEh]      -0.03745370 [kcal/mol]      -0.15670628 [kJ/mol]
      Disp22 (T)                   -0.08785130 [mEh]      -0.05512753 [kcal/mol]      -0.23065357 [kJ/mol]
      Est. Disp22 (T)              -0.10769033 [mEh]      -0.06757670 [kcal/mol]      -0.28274091 [kJ/mol]
      Exch-Disp20                   0.06285277 [mEh]       0.03944071 [kcal/mol]       0.16501993 [kJ/mol]

  Total HF                        110.72762389 [mEh]      69.48263300 [kcal/mol]     290.71533647 [kJ/mol]
  Total SAPT0                     110.36534465 [mEh]      69.25529934 [kcal/mol]     289.76417246 [kJ/mol]
  Total SAPT2                     109.76784124 [mEh]      68.88036029 [kcal/mol]     288.19542747 [kJ/mol]
  Total SAPT2+                    109.61854148 [mEh]      68.78667328 [kcal/mol]     287.80344099 [kJ/mol]

  Special recipe for scaled SAPT0 (see Manual):
    Electrostatics sSAPT0         114.65077594 [mEh]      71.94444808 [kcal/mol]     301.01557077 [kJ/mol]
    Exchange sSAPT0                 0.11101462 [mEh]       0.06966272 [kcal/mol]       0.29146884 [kJ/mol]
    Induction sSAPT0               -4.03486990 [mEh]      -2.53191909 [kcal/mol]     -10.59354946 [kJ/mol]
    Dispersion sSAPT0              -0.36250209 [mEh]      -0.22747350 [kcal/mol]      -0.95174911 [kJ/mol]
  Total sSAPT0                    110.36441857 [mEh]      69.25471822 [kcal/mol]     289.76174103 [kJ/mol]
  --------------------------------------------------------------------------------------------------------

*** Psi4 exiting successfully. Buy a developer a beer!
