                               Psi4 1.9 release

  ==> Input File <==

--------------------------------------------------------------------------
MEMORY 60 GB

molecule dimer {
-1 1
F      0.000000     0.000000     0.000000
--
-1 1
Br     3.948000     0.000000     0.000000

units ang
no_reorient
no_com
symmetry c1
}

set {
basis        aug-cc-pVTZ
scf_type     df
}

energy("sapt2+")
--------------------------------------------------------------------------

  //              Dimer HF             //
    Molecular point group: c1
  Charge       = -2
  Multiplicity = 1
  Basis Set: AUG-CC-PVTZ
    Blend: AUG-CC-PVTZ
  Basis Set: (AUG-CC-PVTZ AUX)
    Blend: AUG-CC-PVTZ-JKFIT
  @DF-RHF Final Energy: -2671.85794104846354
    Total Energy =                      -2671.8579410484635446
 Dipole X            :       -269.0795823          261.1223560           -7.9572263
 Dipole Y            :         -0.0000000            0.0000000           -0.0000000
 Dipole Z            :          0.0000000            0.0000000            0.0000000
 Magnitude           :                                                    7.9572263
  //            Monomer A HF           //
    Molecular point group: c1
  Multiplicity = 1
  Basis Set: AUG-CC-PVTZ
    Blend: AUG-CC-PVTZ
  Basis Set: (AUG-CC-PVTZ AUX)
    Blend: AUG-CC-PVTZ-JKFIT
  @DF-RHF Final Energy:   -99.45081521858670
    Total Energy =                        -99.4508152185866834
  //            Monomer B HF           //
    Molecular point group: c1

    Geometry (in Angstrom), charge = -1, multiplicity = 1:

       Center              X                  Y                   Z               Mass
    ------------   -----------------  -----------------  -----------------  -----------------
      Gh(F)           0.000000000000     0.000000000000     0.000000000000    18.998403162730
         BR           3.948000000000     0.000000000000     0.000000000000    78.918337600000

  Charge       = -1
  Multiplicity = 1
  Basis Set: AUG-CC-PVTZ
    Blend: AUG-CC-PVTZ
  Basis Set: (AUG-CC-PVTZ AUX)
    Blend: AUG-CC-PVTZ-JKFIT

    Orbital Energies [Eh]
    ---------------------

    Doubly Occupied:

       1A   -489.720334     2A    -64.860435     3A    -58.214901
       4A    -58.214901     5A    -58.214900     6A     -9.532848
       7A     -7.140187     8A     -7.140187     9A     -7.140185
      10A     -2.881852    11A     -2.881852    12A     -2.881852
      13A     -2.881852    14A     -2.881847    15A     -0.685999
      16A     -0.139337    17A     -0.139335    18A     -0.139335

  @DF-RHF Final Energy: -2572.53366793218856

   => Energetics <=

    Nuclear Repulsion Energy =              0.0000000000000000
    One-Electron Energy =               -3593.6830532313997537
    Two-Electron Energy =                1021.1493852992111897
    Total Energy =                      -2572.5336679321885640
 Dipole X            :       -268.5829835          261.1223560           -7.4606275
 Dipole Y            :          0.0000000            0.0000000            0.0000000
 Dipole Z            :         -0.0000000            0.0000000           -0.0000000
 Magnitude           :                                                    7.4606275

    SAPT Results
  --------------------------------------------------------------------------------------------------------
    Electrostatics                132.28774059 [mEh]      83.01181049 [kcal/mol]     347.32141508 [kJ/mol]
      Elst10,r                    132.80172318 [mEh]      83.33433943 [kcal/mol]     348.67087618 [kJ/mol]
      Elst12,r                     -0.51398259 [mEh]      -0.32252894 [kcal/mol]      -1.34946110 [kJ/mol]

    Exchange                        1.28332521 [mEh]       0.80529873 [kcal/mol]       3.36936988 [kJ/mol]
      Exch10                        0.86253003 [mEh]       0.54124576 [kcal/mol]       2.26457227 [kJ/mol]
      Exch10(S^2)                   0.86388070 [mEh]       0.54209332 [kcal/mol]       2.26811846 [kJ/mol]
      Exch11(S^2)                   0.00008059 [mEh]       0.00005057 [kcal/mol]       0.00021159 [kJ/mol]
      Exch12(S^2)                   0.42071460 [mEh]       0.26400239 [kcal/mol]       1.10458602 [kJ/mol]

    Induction                      -8.49781305 [mEh]      -5.33245819 [kcal/mol]     -22.31100508 [kJ/mol]
      Ind20,r                      -9.01008272 [mEh]      -5.65391227 [kcal/mol]     -23.65596893 [kJ/mol]
      Ind22                        -1.55946233 [mEh]      -0.97857739 [kcal/mol]      -4.09436779 [kJ/mol]
      Exch-Ind20,r                  1.06193962 [mEh]       0.66637717 [kcal/mol]       2.78812209 [kJ/mol]
      Exch-Ind22                    0.18380018 [mEh]       0.11533635 [kcal/mol]       0.48256731 [kJ/mol]
      delta HF,r (2)                0.82599221 [mEh]       0.51831794 [kcal/mol]       2.16864225 [kJ/mol]

    Dispersion                     -1.40554192 [mEh]      -0.88199087 [kcal/mol]      -3.69024979 [kJ/mol]
      Disp20                       -1.26537292 [mEh]      -0.79403349 [kcal/mol]      -3.32223614 [kJ/mol]
      Disp21                        0.06019313 [mEh]       0.03777176 [kcal/mol]       0.15803703 [kJ/mol]
      Disp22 (SDQ)                 -0.17351629 [mEh]      -0.10888311 [kcal/mol]      -0.45556694 [kJ/mol]
      Disp22 (T)                   -0.26461657 [mEh]      -0.16604941 [kcal/mol]      -0.69475071 [kJ/mol]
      Est. Disp22 (T)              -0.32149115 [mEh]      -0.20173874 [kcal/mol]      -0.84407489 [kJ/mol]
      Exch-Disp20                   0.29464531 [mEh]       0.18489272 [kcal/mol]       0.77359115 [kJ/mol]

  Total HF                        126.54210231 [mEh]      79.40636803 [kcal/mol]     332.23624385 [kJ/mol]
  Total SAPT0                     125.57137470 [mEh]      78.79722726 [kcal/mol]     329.68759886 [kJ/mol]
  Total SAPT2                     124.10252515 [mEh]      77.87551025 [kcal/mol]     325.83113489 [kJ/mol]
  Total SAPT2+                    123.66771084 [mEh]      77.60266015 [kcal/mol]     324.68953008 [kJ/mol]

  Special recipe for scaled SAPT0 (see Manual):
    Electrostatics sSAPT0         132.80172318 [mEh]      83.33433943 [kcal/mol]     348.67087618 [kJ/mol]
    Exchange sSAPT0                 0.86253003 [mEh]       0.54124576 [kcal/mol]       2.26457227 [kJ/mol]
    Induction sSAPT0               -7.12712411 [mEh]      -4.47233790 [kcal/mol]     -18.71226178 [kJ/mol]
    Dispersion sSAPT0              -0.97210747 [mEh]      -0.61000665 [kcal/mol]      -2.55226782 [kJ/mol]
  Total sSAPT0                    125.56502162 [mEh]      78.79324064 [kcal/mol]     329.67091884 [kJ/mol]
  --------------------------------------------------------------------------------------------------------

*** Psi4 exiting successfully. Buy a developer a beer!
