                               Psi4 1.9 release

  ==> Input File <==

--------------------------------------------------------------------------
MEMORY 60 GB

molecule dimer {
-1 1
F      0.000000     0.000000     0.000000
--
-1 1
Br     3.290000     0.000000     0.000000

units ang
no_reorient
no_com
symmetry c1
}

set {
basis        aug-cc-pVTZ
scf_type     df
}

energy("sapt2+")
--------------------------------------------------------------------------

  //              Dimer HF             //
    Molecular point group: c1
  Charge       = -2
  Multiplicity = 1
  Basis Set: AUG-CC-PVTZ
    Blend: AUG-CC-PVTZ
  Basis Set: (AUG-CC-PVTZ AUX)
    Blend: AUG-CC-PVTZ-JKFIT
  @DF-RHF Final Energy: -2671.83709396769746
    Total Energy =                      -2671.8370939676970011
 Dipole X            :       -224.5012894          217.6019633           -6.8993260
 Dipole Y            :          0.0000000            0.0000000            0.0000000
 Dipole Z            :         -0.0000000            0.0000000           -0.0000000
 Magnitude           :                                                    6.8993260
  //            Monomer A HF           //
    Molecular point group: c1
  Multiplicity = 1
  Basis Set: AUG-CC-PVTZ
    Blend: AUG-CC-PVTZ
  Basis Set: (AUG-CC-PVTZ AUX)
    Blend: AUG-CC-PVTZ-JKFIT
  @DF-RHF Final Energy:   -99.45082191608971
    Total Energy =                        -99.4508219160897085
  //            Monomer B HF           //
    Molecular point group: c1

    Geometry (in Angstrom), charge = -1, multiplicity = 1:

       Center              X                  Y                   Z               Mass
    ------------   -----------------  -----------------  -----------------  -----------------
      Gh(F)           0.000000000000     0.000000000000     0.000000000000    18.998403162730
         BR           3.290000000000     0.000000000000     0.000000000000    78.918337600000

  Charge       = -1
  Multiplicity = 1
  Basis Set: AUG-CC-PVTZ
    Blend: AUG-CC-PVTZ
  Basis Set: (AUG-CC-PVTZ AUX)
    Blend: AUG-CC-PVTZ-JKFIT

    Orbital Energies [Eh]
    ---------------------

    Doubly Occupied:

       1A   -489.720378     2A    -64.860465     3A    -58.214932
       4A    -58.214932     5A    -58.214932     6A     -9.532857
       7A     -7.140197     8A     -7.140197     9A     -7.140193
      10A     -2.881863    11A     -2.881863    12A     -2.881862
      13A     -2.881862    14A     -2.881858    15A     -0.685999
      16A     -0.139337    17A     -0.139335    18A     -0.139335

  @DF-RHF Final Energy: -2572.53366905353096

   => Energetics <=

    Nuclear Repulsion Energy =              0.0000000000000000
    One-Electron Energy =               -3593.6825481238170141
    Two-Electron Energy =                1021.1488790702860570
    Total Energy =                      -2572.5336690535309572
 Dipole X            :       -223.8189983          217.6019633           -6.2170350
 Dipole Y            :         -0.0000000            0.0000000           -0.0000000
 Dipole Z            :         -0.0000000            0.0000000           -0.0000000
 Magnitude           :                                                    6.2170350

    SAPT Results
  --------------------------------------------------------------------------------------------------------
    Electrostatics                151.81953126 [mEh]      95.26819417 [kcal/mol]     398.60212440 [kJ/mol]
      Elst10,r                    154.18186534 [mEh]      96.75058118 [kcal/mol]     404.80443168 [kJ/mol]
      Elst12,r                     -2.36233408 [mEh]      -1.48238702 [kcal/mol]      -6.20230728 [kJ/mol]

    Exchange                        8.61907862 [mEh]       5.40855349 [kcal/mol]      22.62938780 [kJ/mol]
      Exch10                        6.28487418 [mEh]       3.94381809 [kcal/mol]      16.50093488 [kJ/mol]
      Exch10(S^2)                   6.28384930 [mEh]       3.94317497 [kcal/mol]      16.49824407 [kJ/mol]
      Exch11(S^2)                   0.06454336 [mEh]       0.04050157 [kcal/mol]       0.16945858 [kJ/mol]
      Exch12(S^2)                   2.26966108 [mEh]       1.42423383 [kcal/mol]       5.95899435 [kJ/mol]

    Induction                     -16.69024426 [mEh]     -10.47328639 [kcal/mol]     -43.82023026 [kJ/mol]
      Ind20,r                     -20.50982325 [mEh]     -12.87010840 [kcal/mol]     -53.84853353 [kJ/mol]
      Ind22                        -5.39015833 [mEh]      -3.38237542 [kcal/mol]     -14.15185874 [kJ/mol]
      Exch-Ind20,r                  6.73361348 [mEh]       4.22540625 [kcal/mol]      17.67909976 [kJ/mol]
      Exch-Ind22                    1.76965166 [mEh]       1.11047318 [kcal/mol]       4.64621979 [kJ/mol]
      delta HF,r (2)                0.70647218 [mEh]       0.44331799 [kcal/mol]       1.85484246 [kJ/mol]

    Dispersion                     -4.03026433 [mEh]      -2.52902905 [kcal/mol]     -10.58145754 [kJ/mol]
      Disp20                       -4.18928752 [mEh]      -2.62881761 [kcal/mol]     -10.99897286 [kJ/mol]
      Disp21                        0.28075882 [mEh]       0.17617882 [kcal/mol]       0.73713217 [kJ/mol]
      Disp22 (SDQ)                 -0.49662061 [mEh]      -0.31163414 [kcal/mol]      -1.30387722 [kJ/mol]
      Disp22 (T)                   -0.81427006 [mEh]      -0.51096218 [kcal/mol]      -2.13786576 [kJ/mol]
      Est. Disp22 (T)              -0.99474908 [mEh]      -0.62421447 [kcal/mol]      -2.61171336 [kJ/mol]
      Exch-Disp20                   1.36963406 [mEh]       0.85945835 [kcal/mol]       3.59597373 [kJ/mol]

  Total HF                        147.39700192 [mEh]      92.49301511 [kcal/mol]     386.99077523 [kJ/mol]
  Total SAPT0                     144.57734847 [mEh]      90.72365586 [kcal/mol]     379.58777610 [kJ/mol]
  Total SAPT2                     140.92871216 [mEh]      88.43410201 [kcal/mol]     370.00828281 [kJ/mol]
  Total SAPT2+                    139.71810129 [mEh]      87.67443222 [kcal/mol]     366.82982440 [kJ/mol]

  Special recipe for scaled SAPT0 (see Manual):
    Electrostatics sSAPT0         154.18186534 [mEh]      96.75058118 [kcal/mol]     404.80443168 [kJ/mol]
    Exchange sSAPT0                 6.28487418 [mEh]       3.94381809 [kcal/mol]      16.50093488 [kJ/mol]
    Induction sSAPT0              -13.06644237 [mEh]      -8.19931637 [kcal/mol]     -34.30593971 [kJ/mol]
    Dispersion sSAPT0              -2.81898320 [mEh]      -1.76893866 [kcal/mol]      -7.40123937 [kJ/mol]
  Total sSAPT0                    144.58131395 [mEh]      90.72614423 [kcal/mol]     379.59818748 [kJ/mol]
  --------------------------------------------------------------------------------------------------------

*** Psi4 exiting successfully. Buy a developer a beer!
