                               Psi4 1.9 release

  ==> Input File <==

--------------------------------------------------------------------------
MEMORY 60 GB

molecule dimer {
-1 1
F      0.000000     0.000000     0.000000
--
-1 1
Br     3.619000     0.000000     0.000000

units ang
no_reorient
no_com
symmetry c1
}

set {
basis        aug-cc-pVTZ
scf_type     df
}

energy("sapt2+")
--------------------------------------------------------------------------

  //              Dimer HF             //
    Molecular point group: c1
  Charge       = -2
  Multiplicity = 1
  Basis Set: AUG-CC-PVTZ
    Blend: AUG-CC-PVTZ
  Basis Set: (AUG-CC-PVTZ AUX)
    Blend: AUG-CC-PVTZ-JKFIT
  @DF-RHF Final Energy: -2671.84837611328885
    Total Energy =                      -2671.8483761132888503
 Dipole X            :       -246.7784314          239.3621597           -7.4162718
 Dipole Y            :          0.0000000            0.0000000            0.0000000
 Dipole Z            :          0.0000000            0.0000000            0.0000000
 Magnitude           :                                                    7.4162718
  //            Monomer A HF           //
    Molecular point group: c1
  Multiplicity = 1
  Basis Set: AUG-CC-PVTZ
    Blend: AUG-CC-PVTZ
  Basis Set: (AUG-CC-PVTZ AUX)
    Blend: AUG-CC-PVTZ-JKFIT
  @DF-RHF Final Energy:   -99.45081938189773
    Total Energy =                        -99.4508193818977162
  //            Monomer B HF           //
    Molecular point group: c1

    Geometry (in Angstrom), charge = -1, multiplicity = 1:

       Center              X                  Y                   Z               Mass
    ------------   -----------------  -----------------  -----------------  -----------------
      Gh(F)           0.000000000000     0.000000000000     0.000000000000    18.998403162730
         BR           3.619000000000     0.000000000000     0.000000000000    78.918337600000

  Charge       = -1
  Multiplicity = 1
  Basis Set: AUG-CC-PVTZ
    Blend: AUG-CC-PVTZ
  Basis Set: (AUG-CC-PVTZ AUX)
    Blend: AUG-CC-PVTZ-JKFIT

    Orbital Energies [Eh]
    ---------------------

    Doubly Occupied:

       1A   -489.720355     2A    -64.860449     3A    -58.214916
       4A    -58.214916     5A    -58.214916     6A     -9.532852
       7A     -7.140191     8A     -7.140191     9A     -7.140189
      10A     -2.881857    11A     -2.881857    12A     -2.881856
      13A     -2.881856    14A     -2.881852    15A     -0.685999
      16A     -0.139337    17A     -0.139334    18A     -0.139334

  @DF-RHF Final Energy: -2572.53366874516041

   => Energetics <=

    Nuclear Repulsion Energy =              0.0000000000000000
    One-Electron Energy =               -3593.6828207333792307
    Two-Electron Energy =                1021.1491519882188186
    Total Energy =                      -2572.5336687451604121
 Dipole X            :       -246.2009317          239.3621597           -6.8387721
 Dipole Y            :         -0.0000000            0.0000000           -0.0000000
 Dipole Z            :         -0.0000000            0.0000000           -0.0000000
 Magnitude           :                                                    6.8387721

    SAPT Results
  --------------------------------------------------------------------------------------------------------
    Electrostatics                142.22913402 [mEh]      89.25012904 [kcal/mol]     373.42253991 [kJ/mol]
      Elst10,r                    143.37214387 [mEh]      89.96737856 [kcal/mol]     376.42351188 [kJ/mol]
      Elst12,r                     -1.14300986 [mEh]      -0.71724951 [kcal/mol]      -3.00097197 [kJ/mol]

    Exchange                        3.34943508 [mEh]       2.10180225 [kcal/mol]       8.79394060 [kJ/mol]
      Exch10                        2.33703408 [mEh]       1.46651103 [kcal/mol]       6.13588213 [kJ/mol]
      Exch10(S^2)                   2.34006526 [mEh]       1.46841312 [kcal/mol]       6.14384049 [kJ/mol]
      Exch11(S^2)                   0.01760563 [mEh]       0.01104770 [kcal/mol]       0.04622358 [kJ/mol]
      Exch12(S^2)                   0.99479537 [mEh]       0.62424352 [kcal/mol]       2.61183489 [kJ/mol]

    Induction                     -11.81446038 [mEh]      -7.41368581 [kcal/mol]     -31.01886145 [kJ/mol]
      Ind20,r                     -13.12702490 [mEh]      -8.23733249 [kcal/mol]     -34.46499913 [kJ/mol]
      Ind22                        -2.76677066 [mEh]      -1.73617480 [kcal/mol]      -7.26415537 [kJ/mol]
      Exch-Ind20,r                  2.60699780 [mEh]       1.63591582 [kcal/mol]       6.84467177 [kJ/mol]
      Exch-Ind22                    0.54947447 [mEh]       0.34480043 [kcal/mol]       1.44264502 [kJ/mol]
      delta HF,r (2)                0.92286292 [mEh]       0.57910522 [kcal/mol]       2.42297626 [kJ/mol]

    Dispersion                     -2.37508649 [mEh]      -1.49038927 [kcal/mol]      -6.23578871 [kJ/mol]
      Disp20                       -2.27694181 [mEh]      -1.42880256 [kcal/mol]      -5.97810991 [kJ/mol]
      Disp21                        0.12554497 [mEh]       0.07878066 [kcal/mol]       0.32961826 [kJ/mol]
      Disp22 (SDQ)                 -0.29444970 [mEh]      -0.18476998 [kcal/mol]      -0.77307758 [kJ/mol]
      Disp22 (T)                   -0.46920521 [mEh]      -0.29443071 [kcal/mol]      -1.23189811 [kJ/mol]
      Est. Disp22 (T)              -0.56587912 [mEh]      -0.35509451 [kcal/mol]      -1.48571543 [kJ/mol]
      Exch-Disp20                   0.63663918 [mEh]       0.39949712 [kcal/mol]       1.67149595 [kJ/mol]

  Total HF                        136.11201377 [mEh]      85.41157814 [kcal/mol]     357.36204292 [kJ/mol]
  Total SAPT0                     134.47171114 [mEh]      84.38227270 [kcal/mol]     353.05542896 [kJ/mol]
  Total SAPT2                     132.12380609 [mEh]      82.90894003 [kcal/mol]     346.89100510 [kJ/mol]
  Total SAPT2+                    131.38902224 [mEh]      82.44785620 [kcal/mol]     344.96183036 [kJ/mol]

  Special recipe for scaled SAPT0 (see Manual):
    Electrostatics sSAPT0         143.37214387 [mEh]      89.96737856 [kcal/mol]     376.42351188 [kJ/mol]
    Exchange sSAPT0                 2.33703408 [mEh]       1.46651103 [kcal/mol]       6.13588213 [kJ/mol]
    Induction sSAPT0               -9.60728190 [mEh]      -6.02866041 [kcal/mol]     -25.22391516 [kJ/mol]
    Dispersion sSAPT0              -1.64277342 [mEh]      -1.03085588 [kcal/mol]      -4.31310101 [kJ/mol]
  Total sSAPT0                    134.45912263 [mEh]      84.37437329 [kcal/mol]     353.02237783 [kJ/mol]
  --------------------------------------------------------------------------------------------------------

*** Psi4 exiting successfully. Buy a developer a beer!
