                               Psi4 1.9 release

  ==> Input File <==

--------------------------------------------------------------------------
MEMORY 60 GB

molecule dimer {
-1 1
F      0.000000     0.000000     0.000000
--
-1 1
Br     6.580000     0.000000     0.000000

units ang
no_reorient
no_com
symmetry c1
}

set {
basis        aug-cc-pVTZ
scf_type     df
}

energy("sapt2+")
--------------------------------------------------------------------------

  //              Dimer HF             //
    Molecular point group: c1
  Charge       = -2
  Multiplicity = 1
  Basis Set: AUG-CC-PVTZ
    Blend: AUG-CC-PVTZ
  Basis Set: (AUG-CC-PVTZ AUX)
    Blend: AUG-CC-PVTZ-JKFIT
  @DF-RHF Final Energy: -2671.90500050456330
    Total Energy =                      -2671.9050005045637590
 Dipole X            :       -447.8284767          435.2039267          -12.6245500
 Dipole Y            :          0.0000000            0.0000000            0.0000000
 Dipole Z            :          0.0000000            0.0000000            0.0000000
 Magnitude           :                                                   12.6245500
  //            Monomer A HF           //
    Molecular point group: c1
  Multiplicity = 1
  Basis Set: AUG-CC-PVTZ
    Blend: AUG-CC-PVTZ
  Basis Set: (AUG-CC-PVTZ AUX)
    Blend: AUG-CC-PVTZ-JKFIT
  @DF-RHF Final Energy:   -99.45080698690776
    Total Energy =                        -99.4508069869077644
  //            Monomer B HF           //
    Molecular point group: c1

    Geometry (in Angstrom), charge = -1, multiplicity = 1:

       Center              X                  Y                   Z               Mass
    ------------   -----------------  -----------------  -----------------  -----------------
      Gh(F)           0.000000000000     0.000000000000     0.000000000000    18.998403162730
         BR           6.580000000000     0.000000000000     0.000000000000    78.918337600000

  Charge       = -1
  Multiplicity = 1
  Basis Set: AUG-CC-PVTZ
    Blend: AUG-CC-PVTZ
  Basis Set: (AUG-CC-PVTZ AUX)
    Blend: AUG-CC-PVTZ-JKFIT

    Orbital Energies [Eh]
    ---------------------

    Doubly Occupied:

       1A   -489.720291     2A    -64.860401     3A    -58.214866
       4A    -58.214866     5A    -58.214866     6A     -9.532837
       7A     -7.140176     8A     -7.140176     9A     -7.140176
      10A     -2.881841    11A     -2.881841    12A     -2.881841
      13A     -2.881841    14A     -2.881841    15A     -0.686001
      16A     -0.139337    17A     -0.139337    18A     -0.139337

  @DF-RHF Final Energy: -2572.53366587147229

   => Energetics <=

    Nuclear Repulsion Energy =              0.0000000000000000
    One-Electron Energy =               -3593.6835930632996678
    Two-Electron Energy =                1021.1499271918271461
    Total Energy =                      -2572.5336658714722944
 Dipole X            :       -447.6384734          435.2039267          -12.4345467
 Dipole Y            :         -0.0000000            0.0000000           -0.0000000
 Dipole Z            :         -0.0000000            0.0000000           -0.0000000
 Magnitude           :                                                   12.4345467

    SAPT Results
  --------------------------------------------------------------------------------------------------------
    Electrostatics                 80.45732412 [mEh]      50.48773312 [kcal/mol]     211.24067538 [kJ/mol]
      Elst10,r                     80.42547854 [mEh]      50.46774972 [kcal/mol]     211.15706482 [kJ/mol]
      Elst12,r                      0.03184558 [mEh]       0.01998340 [kcal/mol]       0.08361056 [kJ/mol]

    Exchange                       -0.00063333 [mEh]      -0.00039742 [kcal/mol]      -0.00166281 [kJ/mol]
      Exch10                       -0.00023542 [mEh]      -0.00014773 [kcal/mol]      -0.00061810 [kJ/mol]
      Exch10(S^2)                  -0.00023538 [mEh]      -0.00014770 [kcal/mol]      -0.00061798 [kJ/mol]
      Exch11(S^2)                  -0.00014246 [mEh]      -0.00008939 [kcal/mol]      -0.00037403 [kJ/mol]
      Exch12(S^2)                  -0.00025545 [mEh]      -0.00016030 [kcal/mol]      -0.00067069 [kJ/mol]

    Induction                      -1.06062728 [mEh]      -0.66555367 [kcal/mol]      -2.78467655 [kJ/mol]
      Ind20,r                      -0.99489078 [mEh]      -0.62430339 [kcal/mol]      -2.61208539 [kJ/mol]
      Ind22                        -0.10799052 [mEh]      -0.06776507 [kcal/mol]      -0.28352906 [kJ/mol]
      Exch-Ind20,r                  0.00232658 [mEh]       0.00145995 [kcal/mol]       0.00610842 [kJ/mol]
      Exch-Ind22                    0.00025254 [mEh]       0.00015847 [kcal/mol]       0.00066304 [kJ/mol]
      delta HF,r (2)                0.03967490 [mEh]       0.02489638 [kcal/mol]       0.10416644 [kJ/mol]

    Dispersion                     -0.04320244 [mEh]      -0.02710994 [kcal/mol]      -0.11342800 [kJ/mol]
      Disp20                       -0.03463065 [mEh]      -0.02173106 [kcal/mol]      -0.09092275 [kJ/mol]
      Disp21                        0.00230950 [mEh]       0.00144923 [kcal/mol]       0.00606358 [kJ/mol]
      Disp22 (SDQ)                 -0.00305681 [mEh]      -0.00191818 [kcal/mol]      -0.00802566 [kJ/mol]
      Disp22 (T)                   -0.00791415 [mEh]      -0.00496621 [kcal/mol]      -0.02077861 [kJ/mol]
      Est. Disp22 (T)              -0.00843381 [mEh]      -0.00529230 [kcal/mol]      -0.02214297 [kJ/mol]
      Exch-Disp20                   0.00060933 [mEh]       0.00038236 [kcal/mol]       0.00159981 [kJ/mol]

  Total HF                         79.47235382 [mEh]      49.86965492 [kcal/mol]     208.65463620 [kJ/mol]
  Total SAPT0                      79.43833250 [mEh]      49.84830623 [kcal/mol]     208.56531325 [kJ/mol]
  Total SAPT2                      79.36204219 [mEh]      49.80043334 [kcal/mol]     208.36501308 [kJ/mol]
  Total SAPT2+                     79.35286106 [mEh]      49.79467209 [kcal/mol]     208.34090802 [kJ/mol]

  Special recipe for scaled SAPT0 (see Manual):
    Electrostatics sSAPT0          80.42547854 [mEh]      50.46774972 [kcal/mol]     211.15706482 [kJ/mol]
    Exchange sSAPT0                -0.00023542 [mEh]      -0.00014773 [kcal/mol]      -0.00061810 [kJ/mol]
    Induction sSAPT0               -0.95288931 [mEh]      -0.59794707 [kcal/mol]      -2.50181053 [kJ/mol]
    Dispersion sSAPT0              -0.03402131 [mEh]      -0.02134870 [kcal/mol]      -0.08932295 [kJ/mol]
  Total sSAPT0                     79.43833250 [mEh]      49.84830623 [kcal/mol]     208.56531325 [kJ/mol]
  --------------------------------------------------------------------------------------------------------

*** Psi4 exiting successfully. Buy a developer a beer!
