                               Psi4 1.9 release

  ==> Input File <==

--------------------------------------------------------------------------
MEMORY 60 GB

molecule dimer {
-1 1
F      0.000000     0.000000     0.000000
--
-1 1
Br     4.277000     0.000000     0.000000

units ang
no_reorient
no_com
symmetry c1
}

set {
basis        aug-cc-pVTZ
scf_type     df
}

energy("sapt2+")
--------------------------------------------------------------------------

  //              Dimer HF             //
    Molecular point group: c1
  Charge       = -2
  Multiplicity = 1
  Basis Set: AUG-CC-PVTZ
    Blend: AUG-CC-PVTZ
  Basis Set: (AUG-CC-PVTZ AUX)
    Blend: AUG-CC-PVTZ-JKFIT
  @DF-RHF Final Energy: -2671.86631508603523
    Total Energy =                      -2671.8663150860347741
 Dipole X            :       -291.3961295          282.8825524           -8.5135772
 Dipole Y            :         -0.0000000            0.0000000           -0.0000000
 Dipole Z            :         -0.0000000            0.0000000           -0.0000000
 Magnitude           :                                                    8.5135772
  //            Monomer A HF           //
    Molecular point group: c1
  Multiplicity = 1
  Basis Set: AUG-CC-PVTZ
    Blend: AUG-CC-PVTZ
  Basis Set: (AUG-CC-PVTZ AUX)
    Blend: AUG-CC-PVTZ-JKFIT
  @DF-RHF Final Energy:   -99.45081198233066
    Total Energy =                        -99.4508119823306629
  //            Monomer B HF           //
    Molecular point group: c1

    Geometry (in Angstrom), charge = -1, multiplicity = 1:

       Center              X                  Y                   Z               Mass
    ------------   -----------------  -----------------  -----------------  -----------------
      Gh(F)           0.000000000000     0.000000000000     0.000000000000    18.998403162730
         BR           4.277000000000     0.000000000000     0.000000000000    78.918337600000

  Charge       = -1
  Multiplicity = 1
  Basis Set: AUG-CC-PVTZ
    Blend: AUG-CC-PVTZ
  Basis Set: (AUG-CC-PVTZ AUX)
    Blend: AUG-CC-PVTZ-JKFIT

    Orbital Energies [Eh]
    ---------------------

    Doubly Occupied:

       1A   -489.720319     2A    -64.860424     3A    -58.214889
       4A    -58.214889     5A    -58.214889     6A     -9.532845
       7A     -7.140184     8A     -7.140184     9A     -7.140183
      10A     -2.881849    11A     -2.881849    12A     -2.881849
      13A     -2.881849    14A     -2.881845    15A     -0.686000
      16A     -0.139337    17A     -0.139336    18A     -0.139336

  @DF-RHF Final Energy: -2572.53366702065978

   => Energetics <=

    Nuclear Repulsion Energy =              0.0000000000000000
    One-Electron Energy =               -3593.6832250490333536
    Two-Electron Energy =                1021.1495580283736899
    Total Energy =                      -2572.5336670206597773
 Dipole X            :       -290.9649407          282.8825524           -8.0823884
 Dipole Y            :          0.0000000            0.0000000            0.0000000
 Dipole Z            :         -0.0000000            0.0000000           -0.0000000
 Magnitude           :                                                    8.0823884

    SAPT Results
  --------------------------------------------------------------------------------------------------------
    Electrostatics                122.98550442 [mEh]      77.17456916 [kcal/mol]     322.89839738 [kJ/mol]
      Elst10,r                    123.18562558 [mEh]      77.30014709 [kcal/mol]     323.42381541 [kJ/mol]
      Elst12,r                     -0.20012116 [mEh]      -0.12557792 [kcal/mol]      -0.52541803 [kJ/mol]

    Exchange                        0.48046562 [mEh]       0.30149673 [kcal/mol]       1.26146231 [kJ/mol]
      Exch10                        0.31347153 [mEh]       0.19670635 [kcal/mol]       0.82301939 [kJ/mol]
      Exch10(S^2)                   0.31391761 [mEh]       0.19698627 [kcal/mol]       0.82419057 [kJ/mol]
      Exch11(S^2)                  -0.00406017 [mEh]      -0.00254780 [kcal/mol]      -0.01065998 [kJ/mol]
      Exch12(S^2)                   0.17105426 [mEh]       0.10733817 [kcal/mol]       0.44910290 [kJ/mol]

    Induction                      -6.22798276 [mEh]      -3.90811819 [kcal/mol]     -16.35156649 [kJ/mol]
      Ind20,r                      -6.42631457 [mEh]      -4.03257327 [kcal/mol]     -16.87228657 [kJ/mol]
      Ind22                        -0.96010417 [mEh]      -0.60247446 [kcal/mol]      -2.52075316 [kJ/mol]
      Exch-Ind20,r                  0.45047304 [mEh]       0.28267610 [kcal/mol]       1.18271680 [kJ/mol]
      Exch-Ind22                    0.06730157 [mEh]       0.04223237 [kcal/mol]       0.17670024 [kJ/mol]
      delta HF,r (2)                0.64066137 [mEh]       0.40202108 [kcal/mol]       1.68205619 [kJ/mol]

    Dispersion                     -0.83758862 [mEh]      -0.52559479 [kcal/mol]      -2.19908861 [kJ/mol]
      Disp20                       -0.72237456 [mEh]      -0.45329688 [kcal/mol]      -1.89659415 [kJ/mol]
      Disp21                        0.03148094 [mEh]       0.01975459 [kcal/mol]       0.08265318 [kJ/mol]
      Disp22 (SDQ)                 -0.10179103 [mEh]      -0.06387484 [kcal/mol]      -0.26725232 [kJ/mol]
      Disp22 (T)                   -0.14689929 [mEh]      -0.09218069 [kcal/mol]      -0.38568402 [kJ/mol]
      Est. Disp22 (T)              -0.18103016 [mEh]      -0.11359814 [kcal/mol]      -0.47529462 [kJ/mol]
      Exch-Disp20                   0.13612620 [mEh]       0.08542048 [kcal/mol]       0.35739930 [kJ/mol]

  Total HF                        118.16391696 [mEh]      74.14897735 [kcal/mol]     310.23932122 [kJ/mol]
  Total SAPT0                     117.57766860 [mEh]      73.78110095 [kcal/mol]     308.70012637 [kJ/mol]
  Total SAPT2                     116.65173892 [mEh]      73.20007131 [kcal/mol]     306.26909834 [kJ/mol]
  Total SAPT2+                    116.40039866 [mEh]      73.04235291 [kcal/mol]     305.60920459 [kJ/mol]

  Special recipe for scaled SAPT0 (see Manual):
    Electrostatics sSAPT0         123.18562558 [mEh]      77.30014709 [kcal/mol]     323.42381541 [kJ/mol]
    Exchange sSAPT0                 0.31347153 [mEh]       0.19670635 [kcal/mol]       0.82301939 [kJ/mol]
    Induction sSAPT0               -5.33709780 [mEh]      -3.34907943 [kcal/mol]     -14.01254835 [kJ/mol]
    Dispersion sSAPT0              -0.58682784 [mEh]      -0.36824003 [kcal/mol]      -1.54071629 [kJ/mol]
  Total sSAPT0                    117.57517146 [mEh]      73.77953397 [kcal/mol]     308.69357015 [kJ/mol]
  --------------------------------------------------------------------------------------------------------

*** Psi4 exiting successfully. Buy a developer a beer!
