                               Psi4 1.9 release

  ==> Input File <==

--------------------------------------------------------------------------
MEMORY 60 GB

molecule dimer {
-1 1
F      0.000000     0.000000     0.000000
--
-1 1
Br     4.935000     0.000000     0.000000

units ang
no_reorient
no_com
symmetry c1
}

set {
basis        aug-cc-pVTZ
scf_type     df
}

energy("sapt2+")
--------------------------------------------------------------------------

  //              Dimer HF             //
    Molecular point group: c1
  Charge       = -2
  Multiplicity = 1
  Basis Set: AUG-CC-PVTZ
    Blend: AUG-CC-PVTZ
  Basis Set: (AUG-CC-PVTZ AUX)
    Blend: AUG-CC-PVTZ-JKFIT
  @DF-RHF Final Energy: -2671.88039497129739
    Total Energy =                      -2671.8803949712973917
 Dipole X            :       -336.0605234          326.4029450           -9.6575783
 Dipole Y            :          0.0000000            0.0000000            0.0000000
 Dipole Z            :          0.0000000            0.0000000            0.0000000
 Magnitude           :                                                    9.6575783
  //            Monomer A HF           //
    Molecular point group: c1
  Multiplicity = 1
  Basis Set: AUG-CC-PVTZ
    Blend: AUG-CC-PVTZ
  Basis Set: (AUG-CC-PVTZ AUX)
    Blend: AUG-CC-PVTZ-JKFIT
  @DF-RHF Final Energy:   -99.45081032611522
    Total Energy =                        -99.4508103261152172
  //            Monomer B HF           //
    Molecular point group: c1

    Geometry (in Angstrom), charge = -1, multiplicity = 1:

       Center              X                  Y                   Z               Mass
    ------------   -----------------  -----------------  -----------------  -----------------
      Gh(F)           0.000000000000     0.000000000000     0.000000000000    18.998403162730
         BR           4.935000000000     0.000000000000     0.000000000000    78.918337600000

  Charge       = -1
  Multiplicity = 1
  Basis Set: AUG-CC-PVTZ
    Blend: AUG-CC-PVTZ
  Basis Set: (AUG-CC-PVTZ AUX)
    Blend: AUG-CC-PVTZ-JKFIT

    Orbital Energies [Eh]
    ---------------------

    Doubly Occupied:

       1A   -489.720304     2A    -64.860411     3A    -58.214876
       4A    -58.214876     5A    -58.214876     6A     -9.532840
       7A     -7.140179     8A     -7.140179     9A     -7.140179
      10A     -2.881844    11A     -2.881844    12A     -2.881844
      13A     -2.881844    14A     -2.881842    15A     -0.686000
      16A     -0.139337    17A     -0.139336    18A     -0.139336

  @DF-RHF Final Energy: -2572.53366647412076

   => Energetics <=

    Nuclear Repulsion Energy =              0.0000000000000000
    One-Electron Energy =               -3593.6834305905513247
    Two-Electron Energy =                1021.1497641164306742
    Total Energy =                      -2572.5336664741207642
 Dipole X            :       -335.7287269          326.4029450           -9.3257819
 Dipole Y            :         -0.0000000            0.0000000           -0.0000000
 Dipole Z            :         -0.0000000            0.0000000           -0.0000000
 Magnitude           :                                                    9.3257819

    SAPT Results
  --------------------------------------------------------------------------------------------------------
    Electrostatics                107.14128913 [mEh]      67.23217396 [kcal/mol]     281.29941586 [kJ/mol]
      Elst10,r                    107.12499799 [mEh]      67.22195112 [kcal/mol]     281.25664347 [kJ/mol]
      Elst12,r                      0.01629115 [mEh]       0.01022285 [kcal/mol]       0.04277240 [kJ/mol]

    Exchange                        0.05907283 [mEh]       0.03706876 [kcal/mol]       0.15509569 [kJ/mol]
      Exch10                        0.03760369 [mEh]       0.02359667 [kcal/mol]       0.09872848 [kJ/mol]
      Exch10(S^2)                   0.03764030 [mEh]       0.02361964 [kcal/mol]       0.09882459 [kJ/mol]
      Exch11(S^2)                  -0.00264817 [mEh]      -0.00166175 [kcal/mol]      -0.00695276 [kJ/mol]
      Exch12(S^2)                   0.02411730 [mEh]       0.01513384 [kcal/mol]       0.06331997 [kJ/mol]

    Induction                      -3.51526945 [mEh]      -2.20586488 [kcal/mol]      -9.22933866 [kJ/mol]
      Ind20,r                      -3.49256486 [mEh]      -2.19161754 [kcal/mol]      -9.16972778 [kJ/mol]
      Ind22                        -0.44608685 [mEh]      -0.27992372 [kcal/mol]      -1.17120086 [kJ/mol]
      Exch-Ind20,r                  0.09074315 [mEh]       0.05694219 [kcal/mol]       0.23824612 [kJ/mol]
      Exch-Ind22                    0.01159014 [mEh]       0.00727292 [kcal/mol]       0.03042992 [kJ/mol]
      delta HF,r (2)                0.32104897 [mEh]       0.20146127 [kcal/mol]       0.84291395 [kJ/mol]

    Dispersion                     -0.31937059 [mEh]      -0.20040807 [kcal/mol]      -0.83850736 [kJ/mol]
      Disp20                       -0.25860217 [mEh]      -0.16227531 [kcal/mol]      -0.67895990 [kJ/mol]
      Disp21                        0.01132883 [mEh]       0.00710895 [kcal/mol]       0.02974384 [kJ/mol]
      Disp22 (SDQ)                 -0.03515527 [mEh]      -0.02206027 [kcal/mol]      -0.09230015 [kJ/mol]
      Disp22 (T)                   -0.05632397 [mEh]      -0.03534383 [kcal/mol]      -0.14787857 [kJ/mol]
      Est. Disp22 (T)              -0.06597064 [mEh]      -0.04139720 [kcal/mol]      -0.17320589 [kJ/mol]
      Exch-Disp20                   0.02902867 [mEh]       0.01821576 [kcal/mol]       0.07621475 [kJ/mol]

  Total HF                        104.08182894 [mEh]      65.31233371 [kcal/mol]     273.26680423 [kJ/mol]
  Total SAPT0                     103.85225543 [mEh]      65.16827416 [kcal/mol]     272.66405908 [kJ/mol]
  Total SAPT2                     103.45551901 [mEh]      64.91931829 [kcal/mol]     271.62242773 [kJ/mol]
  Total SAPT2+                    103.36572193 [mEh]      64.86296977 [kcal/mol]     271.38666553 [kJ/mol]

  Special recipe for scaled SAPT0 (see Manual):
    Electrostatics sSAPT0         107.12499799 [mEh]      67.22195112 [kcal/mol]     281.25664347 [kJ/mol]
    Exchange sSAPT0                 0.03760369 [mEh]       0.02359667 [kcal/mol]       0.09872848 [kJ/mol]
    Induction sSAPT0               -3.08103723 [mEh]      -1.93338005 [kcal/mol]      -8.08926212 [kJ/mol]
    Dispersion sSAPT0              -0.22965811 [mEh]      -0.14411264 [kcal/mol]      -0.60296729 [kJ/mol]
  Total sSAPT0                    103.85190634 [mEh]      65.16805510 [kcal/mol]     272.66314253 [kJ/mol]
  --------------------------------------------------------------------------------------------------------

*** Psi4 exiting successfully. Buy a developer a beer!
