                               Psi4 1.9 release

  ==> Input File <==

--------------------------------------------------------------------------
MEMORY 60 GB

molecule dimer {
-1 1
Cl     0.000000     0.000000     0.000000
--
-1 1
Cl     3.982000     0.000000     0.000000

units ang
no_reorient
no_com
symmetry c1
}

set {
basis        aug-cc-pVTZ
scf_type     df
}

energy("sapt2+")
--------------------------------------------------------------------------

  //              Dimer HF             //
    Molecular point group: c1
  Charge       = -2
  Multiplicity = 1
  Basis Set: AUG-CC-PVTZ
    Blend: AUG-CC-PVTZ
  Basis Set: (AUG-CC-PVTZ AUX)
    Blend: AUG-CC-PVTZ-JKFIT
  @DF-RHF Final Energy:  -919.02169052319937
    Total Energy =                       -919.0216905231993678
 Dipole X            :       -135.4480098          127.9231203           -7.5248894
 Dipole Y            :          0.0000000            0.0000000            0.0000000
 Dipole Z            :         -0.0000000            0.0000000           -0.0000000
 Magnitude           :                                                    7.5248894
  //            Monomer A HF           //
    Molecular point group: c1
  Multiplicity = 1
  Basis Set: AUG-CC-PVTZ
    Blend: AUG-CC-PVTZ
  Basis Set: (AUG-CC-PVTZ AUX)
    Blend: AUG-CC-PVTZ-JKFIT
  @DF-RHF Final Energy:  -459.57348582091930
    Total Energy =                       -459.5734858209192453
  //            Monomer B HF           //
    Molecular point group: c1

    Geometry (in Angstrom), charge = -1, multiplicity = 1:

       Center              X                  Y                   Z               Mass
    ------------   -----------------  -----------------  -----------------  -----------------
      Gh(CL)          0.000000000000     0.000000000000     0.000000000000    34.968852682000
         CL           3.982000000000     0.000000000000     0.000000000000    34.968852682000

  Charge       = -1
  Multiplicity = 1
  Basis Set: AUG-CC-PVTZ
    Blend: AUG-CC-PVTZ
  Basis Set: (AUG-CC-PVTZ AUX)
    Blend: AUG-CC-PVTZ-JKFIT

    Orbital Energies [Eh]
    ---------------------

    Doubly Occupied:

       1A   -104.506000     2A    -10.229750     3A     -7.695782
       4A     -7.695782     5A     -7.695777     6A     -0.733509
       7A     -0.150336     8A     -0.150334     9A     -0.150334

  @DF-RHF Final Energy:  -459.57348582092249

   => Energetics <=

    Nuclear Repulsion Energy =              0.0000000000000000
    One-Electron Energy =                -641.1317627462118480
    Two-Electron Energy =                 181.5582769252893911
    Total Energy =                       -459.5734858209224285
 Dipole X            :       -135.4483065          127.9231203           -7.5251861
 Dipole Y            :          0.0000000            0.0000000            0.0000000
 Dipole Z            :         -0.0000000            0.0000000           -0.0000000
 Magnitude           :                                                    7.5251861

    SAPT Results
  --------------------------------------------------------------------------------------------------------
    Electrostatics                129.74133094 [mEh]      81.41391431 [kcal/mol]     340.63581746 [kJ/mol]
      Elst10,r                    130.40224083 [mEh]      81.82864152 [kcal/mol]     342.37103613 [kJ/mol]
      Elst12,r                     -0.66090989 [mEh]      -0.41472721 [kcal/mol]      -1.73521867 [kJ/mol]

    Exchange                        2.58554188 [mEh]       1.62245203 [kcal/mol]       6.78833928 [kJ/mol]
      Exch10                        2.08938242 [mEh]       1.31110726 [kcal/mol]       5.48567279 [kJ/mol]
      Exch10(S^2)                   2.09184999 [mEh]       1.31265569 [kcal/mol]       5.49215140 [kJ/mol]
      Exch11(S^2)                   0.21504361 [mEh]       0.13494191 [kcal/mol]       0.56459693 [kJ/mol]
      Exch12(S^2)                   0.28111585 [mEh]       0.17640286 [kcal/mol]       0.73806955 [kJ/mol]

    Induction                      -8.15590431 [mEh]      -5.11790722 [kcal/mol]     -21.41332382 [kJ/mol]
      Ind20,r                     -11.01412615 [mEh]      -6.91146850 [kcal/mol]     -28.91758421 [kJ/mol]
      Ind22                        -1.28927575 [mEh]      -0.80903275 [kcal/mol]      -3.38499301 [kJ/mol]
      Exch-Ind20,r                  2.93769131 [mEh]       1.84342913 [kcal/mol]       7.71290747 [kJ/mol]
      Exch-Ind22                    0.34387605 [mEh]       0.21578548 [kcal/mol]       0.90284644 [kJ/mol]
      delta HF,r (2)                0.86593023 [mEh]       0.54337942 [kcal/mol]       2.27349950 [kJ/mol]

    Dispersion                     -2.38839143 [mEh]      -1.49873825 [kcal/mol]      -6.27072084 [kJ/mol]
      Disp20                       -2.85920545 [mEh]      -1.79417851 [kcal/mol]      -7.50684288 [kJ/mol]
      Disp21                        0.34376481 [mEh]       0.21571568 [kcal/mol]       0.90255439 [kJ/mol]
      Disp22 (SDQ)                  0.00545403 [mEh]       0.00342245 [kcal/mol]       0.01431955 [kJ/mol]
      Disp22 (T)                   -0.50378416 [mEh]      -0.31612933 [kcal/mol]      -1.32268514 [kJ/mol]
      Est. Disp22 (T)              -0.58055912 [mEh]      -0.36430635 [kcal/mol]      -1.52425776 [kJ/mol]
      Exch-Disp20                   0.70215430 [mEh]       0.44060847 [kcal/mol]       1.84350585 [kJ/mol]

  Total HF                        125.28111864 [mEh]      78.61508883 [kcal/mol]     328.92553168 [kJ/mol]
  Total SAPT0                     123.12406749 [mEh]      77.26151880 [kcal/mol]     323.26219465 [kJ/mol]
  Total SAPT2                     122.01391736 [mEh]      76.56488908 [kcal/mol]     320.34749589 [kJ/mol]
  Total SAPT2+                    121.78257708 [mEh]      76.41972086 [kcal/mol]     319.74011208 [kJ/mol]

  Special recipe for scaled SAPT0 (see Manual):
    Electrostatics sSAPT0         130.40224083 [mEh]      81.82864152 [kcal/mol]     342.37103613 [kJ/mol]
    Exchange sSAPT0                 2.08938242 [mEh]       1.31110726 [kcal/mol]       5.48567279 [kJ/mol]
    Induction sSAPT0               -7.22088835 [mEh]      -4.53117585 [kcal/mol]     -18.95843975 [kJ/mol]
    Dispersion sSAPT0              -2.15953303 [mEh]      -1.35512744 [kcal/mol]      -5.66985320 [kJ/mol]
  Total sSAPT0                    123.11120187 [mEh]      77.25344550 [kcal/mol]     323.22841598 [kJ/mol]
  --------------------------------------------------------------------------------------------------------

*** Psi4 exiting successfully. Buy a developer a beer!
