                               Psi4 1.9 release

  ==> Input File <==

--------------------------------------------------------------------------
MEMORY 60 GB

molecule dimer {
-1 1
Cl     0.000000     0.000000     0.000000
--
-1 1
Cl     5.068000     0.000000     0.000000

units ang
no_reorient
no_com
symmetry c1
}

set {
basis        aug-cc-pVTZ
scf_type     df
}

energy("sapt2+")
--------------------------------------------------------------------------

  //              Dimer HF             //
    Molecular point group: c1
  Charge       = -2
  Multiplicity = 1
  Basis Set: AUG-CC-PVTZ
    Blend: AUG-CC-PVTZ
  Basis Set: (AUG-CC-PVTZ AUX)
    Blend: AUG-CC-PVTZ-JKFIT
  @DF-RHF Final Energy:  -919.04578682443150
    Total Energy =                       -919.0457868244316160
 Dipole X            :       -172.3883761          162.8112441           -9.5771320
 Dipole Y            :          0.0000000            0.0000000            0.0000000
 Dipole Z            :         -0.0000000            0.0000000           -0.0000000
 Magnitude           :                                                    9.5771320
  //            Monomer A HF           //
    Molecular point group: c1
  Multiplicity = 1
  Basis Set: AUG-CC-PVTZ
    Blend: AUG-CC-PVTZ
  Basis Set: (AUG-CC-PVTZ AUX)
    Blend: AUG-CC-PVTZ-JKFIT
  @DF-RHF Final Energy:  -459.57348334667853
    Total Energy =                       -459.5734833466785290
  //            Monomer B HF           //
    Molecular point group: c1

    Geometry (in Angstrom), charge = -1, multiplicity = 1:

       Center              X                  Y                   Z               Mass
    ------------   -----------------  -----------------  -----------------  -----------------
      Gh(CL)          0.000000000000     0.000000000000     0.000000000000    34.968852682000
         CL           5.068000000000     0.000000000000     0.000000000000    34.968852682000

  Charge       = -1
  Multiplicity = 1
  Basis Set: AUG-CC-PVTZ
    Blend: AUG-CC-PVTZ
  Basis Set: (AUG-CC-PVTZ AUX)
    Blend: AUG-CC-PVTZ-JKFIT

    Orbital Energies [Eh]
    ---------------------

    Doubly Occupied:

       1A   -104.505972     2A    -10.229743     3A     -7.695774
       4A     -7.695774     5A     -7.695772     6A     -0.733511
       7A     -0.150336     8A     -0.150335     9A     -0.150335

  @DF-RHF Final Energy:  -459.57348334665721

   => Energetics <=

    Nuclear Repulsion Energy =              0.0000000000000000
    One-Electron Energy =                -641.1318629206692776
    Two-Electron Energy =                 181.5583795740120934
    Total Energy =                       -459.5734833466572127
 Dipole X            :       -172.3883522          162.8112441           -9.5771082
 Dipole Y            :          0.0000000            0.0000000            0.0000000
 Dipole Z            :         -0.0000000            0.0000000           -0.0000000
 Magnitude           :                                                    9.5771082

    SAPT Results
  --------------------------------------------------------------------------------------------------------
    Electrostatics                104.18133957 [mEh]      65.37477757 [kcal/mol]     273.52806936 [kJ/mol]
      Elst10,r                    104.23989323 [mEh]      65.41152055 [kcal/mol]     273.68180196 [kJ/mol]
      Elst12,r                     -0.05855365 [mEh]      -0.03674297 [kcal/mol]      -0.15373260 [kJ/mol]

    Exchange                        0.09904942 [mEh]       0.06215445 [kcal/mol]       0.26005422 [kJ/mol]
      Exch10                        0.07022109 [mEh]       0.04406440 [kcal/mol]       0.18436545 [kJ/mol]
      Exch10(S^2)                   0.07033812 [mEh]       0.04413784 [kcal/mol]       0.18467272 [kJ/mol]
      Exch11(S^2)                   0.01366758 [mEh]       0.00857654 [kcal/mol]       0.03588422 [kJ/mol]
      Exch12(S^2)                   0.01516075 [mEh]       0.00951351 [kcal/mol]       0.03980454 [kJ/mol]

    Induction                      -3.47389987 [mEh]      -2.17990508 [kcal/mol]      -9.12072285 [kJ/mol]
      Ind20,r                      -3.70406198 [mEh]      -2.32433398 [kcal/mol]      -9.72501338 [kJ/mol]
      Ind22                        -0.36454681 [mEh]      -0.22875658 [kcal/mol]      -0.95711752 [kJ/mol]
      Exch-Ind20,r                  0.21228158 [mEh]       0.13320870 [kcal/mol]       0.55734522 [kJ/mol]
      Exch-Ind22                    0.02089235 [mEh]       0.01311015 [kcal/mol]       0.05485287 [kJ/mol]
      delta HF,r (2)                0.36153498 [mEh]       0.22686663 [kcal/mol]       0.94920996 [kJ/mol]

    Dispersion                     -0.52737836 [mEh]      -0.33093492 [kcal/mol]      -1.38463169 [kJ/mol]
      Disp20                       -0.54109460 [mEh]      -0.33954199 [kcal/mol]      -1.42064367 [kJ/mol]
      Disp21                        0.07076815 [mEh]       0.04440768 [kcal/mol]       0.18580175 [kJ/mol]
      Disp22 (SDQ)                 -0.00334569 [mEh]      -0.00209945 [kcal/mol]      -0.00878410 [kJ/mol]
      Disp22 (T)                   -0.09968810 [mEh]      -0.06255523 [kcal/mol]      -0.26173106 [kJ/mol]
      Est. Disp22 (T)              -0.11533781 [mEh]      -0.07237557 [kcal/mol]      -0.30281939 [kJ/mol]
      Exch-Disp20                   0.06163159 [mEh]       0.03867440 [kcal/mol]       0.16181371 [kJ/mol]

  Total HF                        101.17986890 [mEh]      63.49132629 [kcal/mol]     265.64770921 [kJ/mol]
  Total SAPT0                     100.70040590 [mEh]      63.19045871 [kcal/mol]     264.38887925 [kJ/mol]
  Total SAPT2                     100.32702611 [mEh]      62.95615936 [kcal/mol]     263.40857077 [kJ/mol]
  Total SAPT2+                    100.27911076 [mEh]      62.92609203 [kcal/mol]     263.28276903 [kJ/mol]

  Special recipe for scaled SAPT0 (see Manual):
    Electrostatics sSAPT0         104.23989323 [mEh]      65.41152055 [kcal/mol]     273.68180196 [kJ/mol]
    Exchange sSAPT0                 0.07022109 [mEh]       0.04406440 [kcal/mol]       0.18436545 [kJ/mol]
    Induction sSAPT0               -3.13130326 [mEh]      -1.96492246 [kcal/mol]      -8.22123559 [kJ/mol]
    Dispersion sSAPT0              -0.47977013 [mEh]      -0.30106030 [kcal/mol]      -1.25963631 [kJ/mol]
  Total sSAPT0                    100.69904092 [mEh]      63.18960218 [kcal/mol]     264.38529551 [kJ/mol]
  --------------------------------------------------------------------------------------------------------

*** Psi4 exiting successfully. Buy a developer a beer!
