                               Psi4 1.9 release

  ==> Input File <==

--------------------------------------------------------------------------
MEMORY 60 GB

molecule dimer {
-1 1
Cl     0.000000     0.000000     0.000000
--
-1 1
Cl     4.706000     0.000000     0.000000

units ang
no_reorient
no_com
symmetry c1
}

set {
basis        aug-cc-pVTZ
scf_type     df
}

energy("sapt2+")
--------------------------------------------------------------------------

  //              Dimer HF             //
    Molecular point group: c1
  Charge       = -2
  Multiplicity = 1
  Basis Set: AUG-CC-PVTZ
    Blend: AUG-CC-PVTZ
  Basis Set: (AUG-CC-PVTZ AUX)
    Blend: AUG-CC-PVTZ-JKFIT
  @DF-RHF Final Energy:  -919.03882662984176
    Total Energy =                       -919.0388266298416511
 Dipole X            :       -160.0749206          151.1818695           -8.8930511
 Dipole Y            :         -0.0000000            0.0000000           -0.0000000
 Dipole Z            :         -0.0000000            0.0000000           -0.0000000
 Magnitude           :                                                    8.8930511
  //            Monomer A HF           //
    Molecular point group: c1
  Multiplicity = 1
  Basis Set: AUG-CC-PVTZ
    Blend: AUG-CC-PVTZ
  Basis Set: (AUG-CC-PVTZ AUX)
    Blend: AUG-CC-PVTZ-JKFIT
  @DF-RHF Final Energy:  -459.57348393785128
    Total Energy =                       -459.5734839378512788
  //            Monomer B HF           //
    Molecular point group: c1

    Geometry (in Angstrom), charge = -1, multiplicity = 1:

       Center              X                  Y                   Z               Mass
    ------------   -----------------  -----------------  -----------------  -----------------
      Gh(CL)          0.000000000000     0.000000000000     0.000000000000    34.968852682000
         CL           4.706000000000     0.000000000000     0.000000000000    34.968852682000

  Charge       = -1
  Multiplicity = 1
  Basis Set: AUG-CC-PVTZ
    Blend: AUG-CC-PVTZ
  Basis Set: (AUG-CC-PVTZ AUX)
    Blend: AUG-CC-PVTZ-JKFIT

    Orbital Energies [Eh]
    ---------------------

    Doubly Occupied:

       1A   -104.505973     2A    -10.229743     3A     -7.695774
       4A     -7.695774     5A     -7.695772     6A     -0.733510
       7A     -0.150335     8A     -0.150335     9A     -0.150335

  @DF-RHF Final Energy:  -459.57348393788175

   => Energetics <=

    Nuclear Repulsion Energy =              0.0000000000000000
    One-Electron Energy =                -641.1318682550624999
    Two-Electron Energy =                 181.5583843171807530
    Total Energy =                       -459.5734839378817469
 Dipole X            :       -160.0748313          151.1818695           -8.8929619
 Dipole Y            :         -0.0000000            0.0000000           -0.0000000
 Dipole Z            :          0.0000000            0.0000000            0.0000000
 Magnitude           :                                                    8.8929619

    SAPT Results
  --------------------------------------------------------------------------------------------------------
    Electrostatics                111.89365788 [mEh]      70.21433038 [kcal/mol]     293.77675830 [kJ/mol]
      Elst10,r                    112.03523562 [mEh]      70.30317175 [kcal/mol]     294.14847059 [kJ/mol]
      Elst12,r                     -0.14157773 [mEh]      -0.08884137 [kcal/mol]      -0.37171229 [kJ/mol]

    Exchange                        0.30840505 [mEh]       0.19352709 [kcal/mol]       0.80971734 [kJ/mol]
      Exch10                        0.22940426 [mEh]       0.14395335 [kcal/mol]       0.60230081 [kJ/mol]
      Exch10(S^2)                   0.22982583 [mEh]       0.14421788 [kcal/mol]       0.60340763 [kJ/mol]
      Exch11(S^2)                   0.03473602 [mEh]       0.02179718 [kcal/mol]       0.09119940 [kJ/mol]
      Exch12(S^2)                   0.04426476 [mEh]       0.02777656 [kcal/mol]       0.11621712 [kJ/mol]

    Induction                      -4.60008796 [mEh]      -2.88659878 [kcal/mol]     -12.07752928 [kJ/mol]
      Ind20,r                      -5.13713017 [mEh]      -3.22359785 [kcal/mol]     -13.48753339 [kJ/mol]
      Ind22                        -0.52756693 [mEh]      -0.33105325 [kcal/mol]      -1.38512679 [kJ/mol]
      Exch-Ind20,r                  0.49537036 [mEh]       0.31084959 [kcal/mol]       1.30059470 [kJ/mol]
      Exch-Ind22                    0.05087296 [mEh]       0.03192326 [kcal/mol]       0.13356694 [kJ/mol]
      delta HF,r (2)                0.51836582 [mEh]       0.32527946 [kcal/mol]       1.36096927 [kJ/mol]

    Dispersion                     -0.85874162 [mEh]      -0.53886850 [kcal/mol]      -2.25462581 [kJ/mol]
      Disp20                       -0.91538631 [mEh]      -0.57441358 [kcal/mol]      -2.40334643 [kJ/mol]
      Disp21                        0.11359536 [mEh]       0.07128216 [kcal/mol]       0.29824457 [kJ/mol]
      Disp22 (SDQ)                 -0.00465739 [mEh]      -0.00292256 [kcal/mol]      -0.01222798 [kJ/mol]
      Disp22 (T)                   -0.15987347 [mEh]      -0.10032211 [kcal/mol]      -0.41974773 [kJ/mol]
      Est. Disp22 (T)              -0.19236371 [mEh]      -0.12071005 [kcal/mol]      -0.50505085 [kJ/mol]
      Exch-Disp20                   0.14007044 [mEh]       0.08789553 [kcal/mol]       0.36775488 [kJ/mol]

  Total HF                        108.14124589 [mEh]      67.85965630 [kcal/mol]     283.92480197 [kJ/mol]
  Total SAPT0                     107.36593002 [mEh]      67.37313825 [kcal/mol]     281.88921043 [kJ/mol]
  Total SAPT2                     106.82665910 [mEh]      67.03474063 [kcal/mol]     280.47335481 [kJ/mol]
  Total SAPT2+                    106.74323335 [mEh]      66.98239019 [kcal/mol]     280.25432055 [kJ/mol]

  Special recipe for scaled SAPT0 (see Manual):
    Electrostatics sSAPT0         112.03523562 [mEh]      70.30317175 [kcal/mol]     294.14847059 [kJ/mol]
    Exchange sSAPT0                 0.22940426 [mEh]       0.14395335 [kcal/mol]       0.60230081 [kJ/mol]
    Induction sSAPT0               -4.12611494 [mEh]      -2.58917622 [kcal/mol]     -10.83311329 [kJ/mol]
    Dispersion sSAPT0              -0.77608525 [mEh]      -0.48700085 [kcal/mol]      -2.03761154 [kJ/mol]
  Total sSAPT0                    107.36243969 [mEh]      67.37094803 [kcal/mol]     281.88004657 [kJ/mol]
  --------------------------------------------------------------------------------------------------------

*** Psi4 exiting successfully. Buy a developer a beer!
