                               Psi4 1.9 release

  ==> Input File <==

--------------------------------------------------------------------------
MEMORY 60 GB

molecule dimer {
-1 1
Cl     0.000000     0.000000     0.000000
--
-1 1
Cl     4.344000     0.000000     0.000000

units ang
no_reorient
no_com
symmetry c1
}

set {
basis        aug-cc-pVTZ
scf_type     df
}

energy("sapt2+")
--------------------------------------------------------------------------

  //              Dimer HF             //
    Molecular point group: c1
  Charge       = -2
  Multiplicity = 1
  Basis Set: AUG-CC-PVTZ
    Blend: AUG-CC-PVTZ
  Basis Set: (AUG-CC-PVTZ AUX)
    Blend: AUG-CC-PVTZ-JKFIT
  @DF-RHF Final Energy:  -919.03090734861041
    Total Energy =                       -919.0309073486102989
 Dipole X            :       -147.7614652          139.5524949           -8.2089703
 Dipole Y            :          0.0000000            0.0000000            0.0000000
 Dipole Z            :          0.0000000            0.0000000            0.0000000
 Magnitude           :                                                    8.2089703
  //            Monomer A HF           //
    Molecular point group: c1
  Multiplicity = 1
  Basis Set: AUG-CC-PVTZ
    Blend: AUG-CC-PVTZ
  Basis Set: (AUG-CC-PVTZ AUX)
    Blend: AUG-CC-PVTZ-JKFIT
  @DF-RHF Final Energy:  -459.57348416679935
    Total Energy =                       -459.5734841667993464
  //            Monomer B HF           //
    Molecular point group: c1

    Geometry (in Angstrom), charge = -1, multiplicity = 1:

       Center              X                  Y                   Z               Mass
    ------------   -----------------  -----------------  -----------------  -----------------
      Gh(CL)          0.000000000000     0.000000000000     0.000000000000    34.968852682000
         CL           4.344000000000     0.000000000000     0.000000000000    34.968852682000

  Charge       = -1
  Multiplicity = 1
  Basis Set: AUG-CC-PVTZ
    Blend: AUG-CC-PVTZ
  Basis Set: (AUG-CC-PVTZ AUX)
    Blend: AUG-CC-PVTZ-JKFIT

    Orbital Energies [Eh]
    ---------------------

    Doubly Occupied:

       1A   -104.505982     2A    -10.229745     3A     -7.695777
       4A     -7.695777     5A     -7.695774     6A     -0.733510
       7A     -0.150335     8A     -0.150335     9A     -0.150335

  @DF-RHF Final Energy:  -459.57348416680446

   => Energetics <=

    Nuclear Repulsion Energy =              0.0000000000000000
    One-Electron Energy =                -641.1318266198435367
    Two-Electron Energy =                 181.5583424530391028
    Total Energy =                       -459.5734841668044055
 Dipole X            :       -147.7615528          139.5524949           -8.2090579
 Dipole Y            :          0.0000000            0.0000000            0.0000000
 Dipole Z            :          0.0000000            0.0000000            0.0000000
 Magnitude           :                                                    8.2090579

    SAPT Results
  --------------------------------------------------------------------------------------------------------
    Electrostatics                120.49336425 [mEh]      75.61072759 [kcal/mol]     316.35528425 [kJ/mol]
      Elst10,r                    120.80736163 [mEh]      75.80776392 [kcal/mol]     317.17968425 [kJ/mol]
      Elst12,r                     -0.31399738 [mEh]      -0.19703633 [kcal/mol]      -0.82440000 [kJ/mol]

    Exchange                        0.90827783 [mEh]       0.56995294 [kcal/mol]       2.38468311 [kJ/mol]
      Exch10                        0.70549911 [mEh]       0.44270737 [kcal/mol]       1.85228765 [kJ/mol]
      Exch10(S^2)                   0.70679976 [mEh]       0.44352355 [kcal/mol]       1.85570251 [kJ/mol]
      Exch11(S^2)                   0.08719855 [mEh]       0.05471791 [kcal/mol]       0.22893975 [kJ/mol]
      Exch12(S^2)                   0.11558018 [mEh]       0.07252766 [kcal/mol]       0.30345571 [kJ/mol]

    Induction                      -6.12195663 [mEh]      -3.84158578 [kcal/mol]     -16.07319492 [kJ/mol]
      Ind20,r                      -7.33843245 [mEh]      -4.60493589 [kcal/mol]     -19.26705175 [kJ/mol]
      Ind22                        -0.79893760 [mEh]      -0.50134091 [kcal/mol]      -2.09761037 [kJ/mol]
      Exch-Ind20,r                  1.18357960 [mEh]       0.74270741 [kcal/mol]       3.10748782 [kJ/mol]
      Exch-Ind22                    0.12885671 [mEh]       0.08085880 [kcal/mol]       0.33831324 [kJ/mol]
      delta HF,r (2)                0.70297711 [mEh]       0.44112480 [kcal/mol]       1.84566615 [kJ/mol]

    Dispersion                     -1.42830836 [mEh]      -0.89627703 [kcal/mol]      -3.75002307 [kJ/mol]
      Disp20                       -1.59712606 [mEh]      -1.00221173 [kcal/mol]      -4.19325389 [kJ/mol]
      Disp21                        0.19188444 [mEh]       0.12040930 [kcal/mol]       0.50379253 [kJ/mol]
      Disp22 (SDQ)                 -0.00386748 [mEh]      -0.00242688 [kcal/mol]      -0.01015408 [kJ/mol]
      Disp22 (T)                   -0.29250175 [mEh]      -0.18354762 [kcal/mol]      -0.76796323 [kJ/mol]
      Est. Disp22 (T)              -0.33451934 [mEh]      -0.20991405 [kcal/mol]      -0.87828039 [kJ/mol]
      Exch-Disp20                   0.31532008 [mEh]       0.19786634 [kcal/mol]       0.82787276 [kJ/mol]

  Total HF                        116.06098499 [mEh]      72.82936762 [kcal/mol]     304.71807412 [kJ/mol]
  Total SAPT0                     114.77917902 [mEh]      72.02502222 [kcal/mol]     301.35269299 [kJ/mol]
  Total SAPT2                     113.99787947 [mEh]      71.53474936 [kcal/mol]     299.30139132 [kJ/mol]
  Total SAPT2+                    113.85137709 [mEh]      71.44281773 [kcal/mol]     298.91674937 [kJ/mol]

  Special recipe for scaled SAPT0 (see Manual):
    Electrostatics sSAPT0         120.80736163 [mEh]      75.80776392 [kcal/mol]     317.17968425 [kJ/mol]
    Exchange sSAPT0                 0.70549911 [mEh]       0.44270737 [kcal/mol]       1.85228765 [kJ/mol]
    Induction sSAPT0               -5.45839779 [mEh]      -3.42519632 [kcal/mol]     -14.33102142 [kJ/mol]
    Dispersion sSAPT0              -1.28354353 [mEh]      -0.80543573 [kcal/mol]      -3.36994308 [kJ/mol]
  Total sSAPT0                    114.77091941 [mEh]      72.01983924 [kcal/mol]     301.33100740 [kJ/mol]
  --------------------------------------------------------------------------------------------------------

*** Psi4 exiting successfully. Buy a developer a beer!
