                               Psi4 1.9 release

  ==> Input File <==

--------------------------------------------------------------------------
MEMORY 60 GB

molecule dimer {
-1 1
Cl     0.000000     0.000000     0.000000
--
-1 1
Cl     3.620000     0.000000     0.000000

units ang
no_reorient
no_com
symmetry c1
}

set {
basis        aug-cc-pVTZ
scf_type     df
}

energy("sapt2+")
--------------------------------------------------------------------------

  //              Dimer HF             //
    Molecular point group: c1
  Charge       = -2
  Multiplicity = 1
  Basis Set: AUG-CC-PVTZ
    Blend: AUG-CC-PVTZ
  Basis Set: (AUG-CC-PVTZ AUX)
    Blend: AUG-CC-PVTZ-JKFIT
  @DF-RHF Final Energy:  -919.01041824713593
    Total Energy =                       -919.0104182471359309
 Dipole X            :       -123.1345543          116.2937458           -6.8408086
 Dipole Y            :          0.0000000            0.0000000            0.0000000
 Dipole Z            :         -0.0000000            0.0000000           -0.0000000
 Magnitude           :                                                    6.8408086
  //            Monomer A HF           //
    Molecular point group: c1
  Multiplicity = 1
  Basis Set: AUG-CC-PVTZ
    Blend: AUG-CC-PVTZ
  Basis Set: (AUG-CC-PVTZ AUX)
    Blend: AUG-CC-PVTZ-JKFIT
  @DF-RHF Final Energy:  -459.57348907172138
    Total Energy =                       -459.5734890717213830
  //            Monomer B HF           //
    Molecular point group: c1

    Geometry (in Angstrom), charge = -1, multiplicity = 1:

       Center              X                  Y                   Z               Mass
    ------------   -----------------  -----------------  -----------------  -----------------
      Gh(CL)          0.000000000000     0.000000000000     0.000000000000    34.968852682000
         CL           3.620000000000     0.000000000000     0.000000000000    34.968852682000

  Charge       = -1
  Multiplicity = 1
  Basis Set: AUG-CC-PVTZ
    Blend: AUG-CC-PVTZ
  Basis Set: (AUG-CC-PVTZ AUX)
    Blend: AUG-CC-PVTZ-JKFIT

    Orbital Energies [Eh]
    ---------------------

    Doubly Occupied:

       1A   -104.506033     2A    -10.229757     3A     -7.695792
       4A     -7.695792     5A     -7.695782     6A     -0.733507
       7A     -0.150338     8A     -0.150331     9A     -0.150331

  @DF-RHF Final Energy:  -459.57348907172315

   => Energetics <=

    Nuclear Repulsion Energy =              0.0000000000000000
    One-Electron Energy =                -641.1316526728923009
    Two-Electron Energy =                 181.5581636011691558
    Total Energy =                       -459.5734890717231451
 Dipole X            :       -123.1348516          116.2937458           -6.8411058
 Dipole Y            :          0.0000000            0.0000000            0.0000000
 Dipole Z            :          0.0000000            0.0000000            0.0000000
 Magnitude           :                                                    6.8411058

    SAPT Results
  --------------------------------------------------------------------------------------------------------
    Electrostatics                138.71739343 [mEh]      87.04647856 [kcal/mol]     364.20246629 [kJ/mol]
      Elst10,r                    140.05184879 [mEh]      87.88386193 [kcal/mol]     367.70607833 [kJ/mol]
      Elst12,r                     -1.33445535 [mEh]      -0.83738338 [kcal/mol]      -3.50361204 [kJ/mol]

    Exchange                        7.18985587 [mEh]       4.51170268 [kcal/mol]      18.87696399 [kJ/mol]
      Exch10                        6.04121007 [mEh]       3.79091655 [kcal/mol]      15.86119486 [kJ/mol]
      Exch10(S^2)                   6.03300089 [mEh]       3.78576521 [kcal/mol]      15.83964165 [kJ/mol]
      Exch11(S^2)                   0.51452254 [mEh]       0.32286777 [kcal/mol]       1.35087875 [kJ/mol]
      Exch12(S^2)                   0.63412326 [mEh]       0.39791835 [kcal/mol]       1.66489038 [kJ/mol]

    Induction                     -10.84059217 [mEh]      -6.80257429 [kcal/mol]     -28.46197081 [kJ/mol]
      Ind20,r                     -18.13041364 [mEh]     -11.37700632 [kcal/mol]     -47.60139445 [kJ/mol]
      Ind22                        -2.27181802 [mEh]      -1.42558733 [kcal/mol]      -5.96465738 [kJ/mol]
      Exch-Ind20,r                  7.69637376 [mEh]       4.82954745 [kcal/mol]      20.20682653 [kJ/mol]
      Exch-Ind22                    0.96438840 [mEh]       0.60516286 [kcal/mol]       2.53200139 [kJ/mol]
      delta HF,r (2)                0.90087733 [mEh]       0.56530906 [kcal/mol]       2.36525309 [kJ/mol]

    Dispersion                     -4.01314719 [mEh]      -2.51828788 [kcal/mol]     -10.53651650 [kJ/mol]
      Disp20                       -5.23297204 [mEh]      -3.28373953 [kcal/mol]     -13.73916621 [kJ/mol]
      Disp21                        0.65475879 [mEh]       0.41086735 [kcal/mol]       1.71906898 [kJ/mol]
      Disp22 (SDQ)                  0.03864337 [mEh]       0.02424908 [kcal/mol]       0.10145816 [kJ/mol]
      Disp22 (T)                   -0.86520525 [mEh]      -0.54292449 [kcal/mol]      -2.27159608 [kJ/mol]
      Est. Disp22 (T)              -1.01799034 [mEh]      -0.63879858 [kcal/mol]      -2.67273327 [kJ/mol]
      Exch-Disp20                   1.54441303 [mEh]       0.96913380 [kcal/mol]       4.05485584 [kJ/mol]

  Total HF                        136.55989631 [mEh]      85.69262867 [kcal/mol]     358.53795836 [kJ/mol]
  Total SAPT0                     132.87133729 [mEh]      83.37802294 [kcal/mol]     348.85364800 [kJ/mol]
  Total SAPT2                     131.37809812 [mEh]      82.44100122 [kcal/mol]     344.93314910 [kJ/mol]
  Total SAPT2+                    131.05350995 [mEh]      82.23731906 [kcal/mol]     344.08094297 [kJ/mol]

  Special recipe for scaled SAPT0 (see Manual):
    Electrostatics sSAPT0         140.05184879 [mEh]      87.88386193 [kcal/mol]     367.70607833 [kJ/mol]
    Exchange sSAPT0                 6.04121007 [mEh]       3.79091655 [kcal/mol]      15.86119486 [kJ/mol]
    Induction sSAPT0               -9.50170210 [mEh]      -5.96240809 [kcal/mol]     -24.94671543 [kJ/mol]
    Dispersion sSAPT0              -3.68224592 [mEh]      -2.31064420 [kcal/mol]      -9.66773534 [kJ/mol]
  Total sSAPT0                    132.90911083 [mEh]      83.40172620 [kcal/mol]     348.95282241 [kJ/mol]
  --------------------------------------------------------------------------------------------------------

*** Psi4 exiting successfully. Buy a developer a beer!
