                               Psi4 1.9 release

  ==> Input File <==

--------------------------------------------------------------------------
MEMORY 60 GB

molecule dimer {
-1 1
Cl     0.000000     0.000000     0.000000
--
-1 1
Cl     5.430000     0.000000     0.000000

units ang
no_reorient
no_com
symmetry c1
}

set {
basis        aug-cc-pVTZ
scf_type     df
}

energy("sapt2+")
--------------------------------------------------------------------------

  //              Dimer HF             //
    Molecular point group: c1
  Charge       = -2
  Multiplicity = 1
  Basis Set: AUG-CC-PVTZ
    Blend: AUG-CC-PVTZ
  Basis Set: (AUG-CC-PVTZ AUX)
    Blend: AUG-CC-PVTZ-JKFIT
  @DF-RHF Final Energy:  -919.05196826102224
    Total Energy =                       -919.0519682610222389
 Dipole X            :       -184.7018315          174.4406186          -10.2612129
 Dipole Y            :          0.0000000            0.0000000            0.0000000
 Dipole Z            :          0.0000000            0.0000000            0.0000000
 Magnitude           :                                                   10.2612129
  //            Monomer A HF           //
    Molecular point group: c1
  Multiplicity = 1
  Basis Set: AUG-CC-PVTZ
    Blend: AUG-CC-PVTZ
  Basis Set: (AUG-CC-PVTZ AUX)
    Blend: AUG-CC-PVTZ-JKFIT
  @DF-RHF Final Energy:  -459.57348279887509
    Total Energy =                       -459.5734827988750908
  //            Monomer B HF           //
    Molecular point group: c1

    Geometry (in Angstrom), charge = -1, multiplicity = 1:

       Center              X                  Y                   Z               Mass
    ------------   -----------------  -----------------  -----------------  -----------------
      Gh(CL)          0.000000000000     0.000000000000     0.000000000000    34.968852682000
         CL           5.430000000000     0.000000000000     0.000000000000    34.968852682000

  Charge       = -1
  Multiplicity = 1
  Basis Set: AUG-CC-PVTZ
    Blend: AUG-CC-PVTZ
  Basis Set: (AUG-CC-PVTZ AUX)
    Blend: AUG-CC-PVTZ-JKFIT

    Orbital Energies [Eh]
    ---------------------

    Doubly Occupied:

       1A   -104.505972     2A    -10.229745     3A     -7.695775
       4A     -7.695775     5A     -7.695773     6A     -0.733512
       7A     -0.150337     8A     -0.150337     9A     -0.150337

  @DF-RHF Final Energy:  -459.57348279886099

   => Energetics <=

    Nuclear Repulsion Energy =              0.0000000000000000
    One-Electron Energy =                -641.1318386797121320
    Two-Electron Energy =                 181.5583558808511100
    Total Energy =                       -459.5734827988610505
 Dipole X            :       -184.7019926          174.4406186          -10.2613739
 Dipole Y            :         -0.0000000            0.0000000           -0.0000000
 Dipole Z            :          0.0000000            0.0000000            0.0000000
 Magnitude           :                                                   10.2613739

    SAPT Results
  --------------------------------------------------------------------------------------------------------
    Electrostatics                 97.35300106 [mEh]      61.08993047 [kcal/mol]     255.60026908 [kJ/mol]
      Elst10,r                     97.37290451 [mEh]      61.10242007 [kcal/mol]     255.65252556 [kJ/mol]
      Elst12,r                     -0.01990344 [mEh]      -0.01248960 [kcal/mol]      -0.05225648 [kJ/mol]

    Exchange                        0.02876660 [mEh]       0.01805131 [kcal/mol]       0.07552669 [kJ/mol]
      Exch10                        0.01915342 [mEh]       0.01201895 [kcal/mol]       0.05028730 [kJ/mol]
      Exch10(S^2)                   0.01918354 [mEh]       0.01203785 [kcal/mol]       0.05036638 [kJ/mol]
      Exch11(S^2)                   0.00533008 [mEh]       0.00334468 [kcal/mol]       0.01399413 [kJ/mol]
      Exch12(S^2)                   0.00428309 [mEh]       0.00268768 [kcal/mol]       0.01124526 [kJ/mol]

    Induction                      -2.64592195 [mEh]      -1.66034109 [kcal/mol]      -6.94686712 [kJ/mol]
      Ind20,r                      -2.73195740 [mEh]      -1.71432915 [kcal/mol]      -7.17275318 [kJ/mol]
      Ind22                        -0.26004058 [mEh]      -0.16317793 [kcal/mol]      -0.68273644 [kJ/mol]
      Exch-Ind20,r                  0.09287037 [mEh]       0.05827703 [kcal/mol]       0.24383111 [kJ/mol]
      Exch-Ind22                    0.00883984 [mEh]       0.00554708 [kcal/mol]       0.02320899 [kJ/mol]
      delta HF,r (2)                0.24436583 [mEh]       0.15334187 [kcal/mol]       0.64158239 [kJ/mol]

    Dispersion                     -0.33144017 [mEh]      -0.20798184 [kcal/mol]      -0.87019604 [kJ/mol]
      Disp20                       -0.33135127 [mEh]      -0.20792606 [kcal/mol]      -0.86996264 [kJ/mol]
      Disp21                        0.04599525 [mEh]       0.02886245 [kcal/mol]       0.12076050 [kJ/mol]
      Disp22 (SDQ)                 -0.00185993 [mEh]      -0.00116712 [kcal/mol]      -0.00488324 [kJ/mol]
      Disp22 (T)                   -0.06373334 [mEh]      -0.03999328 [kcal/mol]      -0.16733187 [kJ/mol]
      Est. Disp22 (T)              -0.07117126 [mEh]      -0.04466064 [kcal/mol]      -0.18686011 [kJ/mol]
      Exch-Disp20                   0.02694704 [mEh]       0.01690953 [kcal/mol]       0.07074946 [kJ/mol]

  Total HF                         94.99733671 [mEh]      59.61172877 [kcal/mol]     249.41547318 [kJ/mol]
  Total SAPT0                      94.69293249 [mEh]      59.42071224 [kcal/mol]     248.61625999 [kJ/mol]
  Total SAPT2                      94.43144148 [mEh]      59.25662415 [kcal/mol]     247.92971546 [kJ/mol]
  Total SAPT2+                     94.40440554 [mEh]      59.23965884 [kcal/mol]     247.85873261 [kJ/mol]

  Special recipe for scaled SAPT0 (see Manual):
    Electrostatics sSAPT0          97.37290451 [mEh]      61.10242007 [kcal/mol]     255.65252556 [kJ/mol]
    Exchange sSAPT0                 0.01915342 [mEh]       0.01201895 [kcal/mol]       0.05028730 [kJ/mol]
    Induction sSAPT0               -2.39515798 [mEh]      -1.50298433 [kcal/mol]      -6.28848642 [kJ/mol]
    Dispersion sSAPT0              -0.30453096 [mEh]      -0.19109606 [kcal/mol]      -0.79954592 [kJ/mol]
  Total sSAPT0                     94.69236898 [mEh]      59.42035863 [kcal/mol]     248.61478052 [kJ/mol]
  --------------------------------------------------------------------------------------------------------

*** Psi4 exiting successfully. Buy a developer a beer!
