                               Psi4 1.9 release

  ==> Input File <==

--------------------------------------------------------------------------
MEMORY 60 GB

molecule dimer {
-1 1
Cl     0.000000     0.000000     0.000000
--
-1 1
Cl     7.240000     0.000000     0.000000

units ang
no_reorient
no_com
symmetry c1
}

set {
basis        aug-cc-pVTZ
scf_type     df
}

energy("sapt2+")
--------------------------------------------------------------------------

  //              Dimer HF             //
    Molecular point group: c1
  Charge       = -2
  Multiplicity = 1
  Basis Set: AUG-CC-PVTZ
    Blend: AUG-CC-PVTZ
  Basis Set: (AUG-CC-PVTZ AUX)
    Blend: AUG-CC-PVTZ-JKFIT
  @DF-RHF Final Energy:  -919.07461900021701
    Total Energy =                       -919.0746190002168987
 Dipole X            :       -246.2691087          232.5874915          -13.6816171
 Dipole Y            :         -0.0000000            0.0000000           -0.0000000
 Dipole Z            :         -0.0000000            0.0000000           -0.0000000
 Magnitude           :                                                   13.6816171
  //            Monomer A HF           //
    Molecular point group: c1
  Multiplicity = 1
  Basis Set: AUG-CC-PVTZ
    Blend: AUG-CC-PVTZ
  Basis Set: (AUG-CC-PVTZ AUX)
    Blend: AUG-CC-PVTZ-JKFIT
  @DF-RHF Final Energy:  -459.57348205241277
    Total Energy =                       -459.5734820524127713
  //            Monomer B HF           //
    Molecular point group: c1

    Geometry (in Angstrom), charge = -1, multiplicity = 1:

       Center              X                  Y                   Z               Mass
    ------------   -----------------  -----------------  -----------------  -----------------
      Gh(CL)          0.000000000000     0.000000000000     0.000000000000    34.968852682000
         CL           7.240000000000     0.000000000000     0.000000000000    34.968852682000

  Charge       = -1
  Multiplicity = 1
  Basis Set: AUG-CC-PVTZ
    Blend: AUG-CC-PVTZ
  Basis Set: (AUG-CC-PVTZ AUX)
    Blend: AUG-CC-PVTZ-JKFIT

    Orbital Energies [Eh]
    ---------------------

    Doubly Occupied:

       1A   -104.505960     2A    -10.229742     3A     -7.695771
       4A     -7.695771     5A     -7.695771     6A     -0.733513
       7A     -0.150338     8A     -0.150337     9A     -0.150337

  @DF-RHF Final Energy:  -459.57348205240032

   => Energetics <=

    Nuclear Repulsion Energy =              0.0000000000000000
    One-Electron Energy =                -641.1318913120593379
    Two-Electron Energy =                 181.5584092596590153
    Total Energy =                       -459.5734820524003226
 Dipole X            :       -246.2691745          232.5874915          -13.6816830
 Dipole Y            :          0.0000000            0.0000000            0.0000000
 Dipole Z            :         -0.0000000            0.0000000           -0.0000000
 Magnitude           :                                                   13.6816830

    SAPT Results
  --------------------------------------------------------------------------------------------------------
    Electrostatics                 73.09429318 [mEh]      45.86736145 [kcal/mol]     191.90904031 [kJ/mol]
      Elst10,r                     73.08895329 [mEh]      45.86401062 [kcal/mol]     191.89502043 [kJ/mol]
      Elst12,r                      0.00533989 [mEh]       0.00335083 [kcal/mol]       0.01401988 [kJ/mol]

    Exchange                       -0.00062086 [mEh]      -0.00038960 [kcal/mol]      -0.00163007 [kJ/mol]
      Exch10                       -0.00043996 [mEh]      -0.00027608 [kcal/mol]      -0.00115511 [kJ/mol]
      Exch10(S^2)                  -0.00043994 [mEh]      -0.00027606 [kcal/mol]      -0.00115505 [kJ/mol]
      Exch11(S^2)                   0.00005314 [mEh]       0.00003334 [kcal/mol]       0.00013951 [kJ/mol]
      Exch12(S^2)                  -0.00023404 [mEh]      -0.00014686 [kcal/mol]      -0.00061447 [kJ/mol]

    Induction                      -0.80734436 [mEh]      -0.50661623 [kcal/mol]      -2.11968232 [kJ/mol]
      Ind20,r                      -0.77561882 [mEh]      -0.48670816 [kcal/mol]      -2.03638692 [kJ/mol]
      Ind22                        -0.06409096 [mEh]      -0.04021769 [kcal/mol]      -0.16827080 [kJ/mol]
      Exch-Ind20,r                  0.00187992 [mEh]       0.00117967 [kcal/mol]       0.00493572 [kJ/mol]
      Exch-Ind22                    0.00015534 [mEh]       0.00009748 [kcal/mol]       0.00040785 [kJ/mol]
      delta HF,r (2)                0.03033017 [mEh]       0.01903247 [kcal/mol]       0.07963184 [kJ/mol]

    Dispersion                     -0.04763425 [mEh]      -0.02989094 [kcal/mol]      -0.12506371 [kJ/mol]
      Disp20                       -0.04667915 [mEh]      -0.02929161 [kcal/mol]      -0.12255609 [kJ/mol]
      Disp21                        0.00818973 [mEh]       0.00513913 [kcal/mol]       0.02150214 [kJ/mol]
      Disp22 (SDQ)                  0.00032889 [mEh]       0.00020638 [kcal/mol]       0.00086350 [kJ/mol]
      Disp22 (T)                   -0.00952143 [mEh]      -0.00597479 [kcal/mol]      -0.02499852 [kJ/mol]
      Est. Disp22 (T)              -0.00990496 [mEh]      -0.00621546 [kcal/mol]      -0.02600547 [kJ/mol]
      Exch-Disp20                   0.00043124 [mEh]       0.00027061 [kcal/mol]       0.00113222 [kJ/mol]

  Total HF                         72.34510460 [mEh]      45.39723852 [kcal/mol]     189.94204595 [kJ/mol]
  Total SAPT0                      72.29885668 [mEh]      45.36821751 [kcal/mol]     189.82062207 [kJ/mol]
  Total SAPT2                      72.24008005 [mEh]      45.33133462 [kcal/mol]     189.66630404 [kJ/mol]
  Total SAPT2+                     72.23869371 [mEh]      45.33046468 [kcal/mol]     189.66266421 [kJ/mol]

  Special recipe for scaled SAPT0 (see Manual):
    Electrostatics sSAPT0          73.08895329 [mEh]      45.86401062 [kcal/mol]     191.89502043 [kJ/mol]
    Exchange sSAPT0                -0.00043996 [mEh]      -0.00027608 [kcal/mol]      -0.00115511 [kJ/mol]
    Induction sSAPT0               -0.74340874 [mEh]      -0.46649602 [kcal/mol]      -1.95181937 [kJ/mol]
    Dispersion sSAPT0              -0.04624791 [mEh]      -0.02902100 [kcal/mol]      -0.12142388 [kJ/mol]
  Total sSAPT0                     72.29885668 [mEh]      45.36821751 [kcal/mol]     189.82062207 [kJ/mol]
  --------------------------------------------------------------------------------------------------------

*** Psi4 exiting successfully. Buy a developer a beer!
