                               Psi4 1.9 release

  ==> Input File <==

--------------------------------------------------------------------------
MEMORY 60 GB

molecule dimer {
-1 1
Cl     0.000000     0.000000     0.000000
--
-1 1
Br     4.901000     0.000000     0.000000

units ang
no_reorient
no_com
symmetry c1
}

set {
basis        aug-cc-pVTZ
scf_type     df
}

energy("sapt2+")
--------------------------------------------------------------------------

  //              Dimer HF             //
    Molecular point group: c1
  Charge       = -2
  Multiplicity = 1
  Basis Set: AUG-CC-PVTZ
    Blend: AUG-CC-PVTZ
  Basis Set: (AUG-CC-PVTZ AUX)
    Blend: AUG-CC-PVTZ-JKFIT
  @DF-RHF Final Energy: -3032.00357016547605
    Total Energy =                      -3032.0035701654760487
 Dipole X            :       -333.5380810          324.1541709           -9.3839100
 Dipole Y            :          0.0000000            0.0000000            0.0000000
 Dipole Z            :         -0.0000000            0.0000000           -0.0000000
 Magnitude           :                                                    9.3839100
  //            Monomer A HF           //
    Molecular point group: c1
  Multiplicity = 1
  Basis Set: AUG-CC-PVTZ
    Blend: AUG-CC-PVTZ
  Basis Set: (AUG-CC-PVTZ AUX)
    Blend: AUG-CC-PVTZ-JKFIT
  @DF-RHF Final Energy:  -459.57348393330136
    Total Energy =                       -459.5734839333013042
  //            Monomer B HF           //
    Molecular point group: c1

    Geometry (in Angstrom), charge = -1, multiplicity = 1:

       Center              X                  Y                   Z               Mass
    ------------   -----------------  -----------------  -----------------  -----------------
      Gh(CL)          0.000000000000     0.000000000000     0.000000000000    34.968852682000
         BR           4.901000000000     0.000000000000     0.000000000000    78.918337600000

  Charge       = -1
  Multiplicity = 1
  Basis Set: AUG-CC-PVTZ
    Blend: AUG-CC-PVTZ
  Basis Set: (AUG-CC-PVTZ AUX)
    Blend: AUG-CC-PVTZ-JKFIT

    Orbital Energies [Eh]
    ---------------------

    Doubly Occupied:

       1A   -489.720325     2A    -64.860427     3A    -58.214893
       4A    -58.214893     5A    -58.214892     6A     -9.532845
       7A     -7.140185     8A     -7.140185     9A     -7.140184
      10A     -2.881850    11A     -2.881850    12A     -2.881850
      13A     -2.881850    14A     -2.881846    15A     -0.686000
      16A     -0.139337    17A     -0.139336    18A     -0.139336

  @DF-RHF Final Energy: -2572.53366722530791

   => Energetics <=

    Nuclear Repulsion Energy =              0.0000000000000000
    One-Electron Energy =               -3593.6831587328106252
    Two-Electron Energy =                1021.1494915075028302
    Total Energy =                      -2572.5336672253079087
 Dipole X            :       -333.4157934          324.1541709           -9.2616225
 Dipole Y            :         -0.0000000            0.0000000           -0.0000000
 Dipole Z            :          0.0000000            0.0000000            0.0000000
 Magnitude           :                                                    9.2616225

    SAPT Results
  --------------------------------------------------------------------------------------------------------
    Electrostatics                107.43440858 [mEh]      67.41610919 [kcal/mol]     282.06900087 [kJ/mol]
      Elst10,r                    107.55131821 [mEh]      67.48947109 [kcal/mol]     282.37594705 [kJ/mol]
      Elst12,r                     -0.11690962 [mEh]      -0.07336190 [kcal/mol]      -0.30694618 [kJ/mol]

    Exchange                        0.29275062 [mEh]       0.18370378 [kcal/mol]       0.76861664 [kJ/mol]
      Exch10                        0.21569154 [mEh]       0.13534849 [kcal/mol]       0.56629807 [kJ/mol]
      Exch10(S^2)                   0.21609897 [mEh]       0.13560415 [kcal/mol]       0.56736777 [kJ/mol]
      Exch11(S^2)                   0.04438184 [mEh]       0.02785002 [kcal/mol]       0.11652450 [kJ/mol]
      Exch12(S^2)                   0.03267723 [mEh]       0.02050527 [kcal/mol]       0.08579406 [kJ/mol]

    Induction                      -4.67534034 [mEh]      -2.93382035 [kcal/mol]     -12.27510436 [kJ/mol]
      Ind20,r                      -5.39315506 [mEh]      -3.38425589 [kcal/mol]     -14.15972665 [kJ/mol]
      Ind22                        -0.55793993 [mEh]      -0.35011259 [kcal/mol]      -1.46487108 [kJ/mol]
      Exch-Ind20,r                  0.66325754 [mEh]       0.41620039 [kcal/mol]       1.74138243 [kJ/mol]
      Exch-Ind22                    0.06861621 [mEh]       0.04305732 [kcal/mol]       0.18015184 [kJ/mol]
      delta HF,r (2)                0.54388090 [mEh]       0.34129042 [kcal/mol]       1.42795910 [kJ/mol]

    Dispersion                     -0.88654875 [mEh]      -0.55631774 [kcal/mol]      -2.32763342 [kJ/mol]
      Disp20                       -0.95749492 [mEh]      -0.60083713 [kcal/mol]      -2.51390256 [kJ/mol]
      Disp21                        0.13237912 [mEh]       0.08306915 [kcal/mol]       0.34756134 [kJ/mol]
      Disp22 (SDQ)                 -0.00507820 [mEh]      -0.00318662 [kcal/mol]      -0.01333282 [kJ/mol]
      Disp22 (T)                   -0.16602424 [mEh]      -0.10418178 [kcal/mol]      -0.43589658 [kJ/mol]
      Est. Disp22 (T)              -0.19843356 [mEh]      -0.12451894 [kcal/mol]      -0.52098724 [kJ/mol]
      Exch-Disp20                   0.14207881 [mEh]       0.08915580 [kcal/mol]       0.37302786 [kJ/mol]

  Total HF                        103.58099313 [mEh]      64.99805449 [kcal/mol]     271.95186000 [kJ/mol]
  Total SAPT0                     102.76557702 [mEh]      64.48637316 [kcal/mol]     269.81098530 [kJ/mol]
  Total SAPT2                     102.23640275 [mEh]      64.15431129 [kcal/mol]     268.42163845 [kJ/mol]
  Total SAPT2+                    102.16527011 [mEh]      64.10967489 [kcal/mol]     268.23487973 [kJ/mol]

  Special recipe for scaled SAPT0 (see Manual):
    Electrostatics sSAPT0         107.55131821 [mEh]      67.48947109 [kcal/mol]     282.37594705 [kJ/mol]
    Exchange sSAPT0                 0.21569154 [mEh]       0.13534849 [kcal/mol]       0.56629807 [kJ/mol]
    Induction sSAPT0               -4.18976103 [mEh]      -2.62911474 [kcal/mol]     -11.00021606 [kJ/mol]
    Dispersion sSAPT0              -0.81621821 [mEh]      -0.51218466 [kcal/mol]      -2.14298062 [kJ/mol]
  Total sSAPT0                    102.76103051 [mEh]      64.48352018 [kcal/mol]     269.79904843 [kJ/mol]
  --------------------------------------------------------------------------------------------------------

*** Psi4 exiting successfully. Buy a developer a beer!
