                               Psi4 1.9 release

  ==> Input File <==

--------------------------------------------------------------------------
MEMORY 60 GB

molecule dimer {
-1 1
Cl     0.000000     0.000000     0.000000
--
-1 1
Br     5.655000     0.000000     0.000000

units ang
no_reorient
no_com
symmetry c1
}

set {
basis        aug-cc-pVTZ
scf_type     df
}

energy("sapt2+")
--------------------------------------------------------------------------

  //              Dimer HF             //
    Molecular point group: c1
  Charge       = -2
  Multiplicity = 1
  Basis Set: AUG-CC-PVTZ
    Blend: AUG-CC-PVTZ
  Basis Set: (AUG-CC-PVTZ AUX)
    Blend: AUG-CC-PVTZ-JKFIT
  @DF-RHF Final Energy: -3032.01608739013409
    Total Energy =                      -3032.0160873901340892
 Dipole X            :       -384.8051109          374.0240434          -10.7810676
 Dipole Y            :         -0.0000000            0.0000000           -0.0000000
 Dipole Z            :         -0.0000000            0.0000000           -0.0000000
 Magnitude           :                                                   10.7810676
  //            Monomer A HF           //
    Molecular point group: c1
  Multiplicity = 1
  Basis Set: AUG-CC-PVTZ
    Blend: AUG-CC-PVTZ
  Basis Set: (AUG-CC-PVTZ AUX)
    Blend: AUG-CC-PVTZ-JKFIT
  @DF-RHF Final Energy:  -459.57348284960619
    Total Energy =                       -459.5734828496061937
  //            Monomer B HF           //
    Molecular point group: c1

    Geometry (in Angstrom), charge = -1, multiplicity = 1:

       Center              X                  Y                   Z               Mass
    ------------   -----------------  -----------------  -----------------  -----------------
      Gh(CL)          0.000000000000     0.000000000000     0.000000000000    34.968852682000
         BR           5.655000000000     0.000000000000     0.000000000000    78.918337600000

  Charge       = -1
  Multiplicity = 1
  Basis Set: AUG-CC-PVTZ
    Blend: AUG-CC-PVTZ
  Basis Set: (AUG-CC-PVTZ AUX)
    Blend: AUG-CC-PVTZ-JKFIT

    Orbital Energies [Eh]
    ---------------------

    Doubly Occupied:

       1A   -489.720308     2A    -64.860413     3A    -58.214879
       4A    -58.214879     5A    -58.214878     6A     -9.532840
       7A     -7.140180     8A     -7.140180     9A     -7.140179
      10A     -2.881845    11A     -2.881845    12A     -2.881845
      13A     -2.881845    14A     -2.881843    15A     -0.686001
      16A     -0.139337    17A     -0.139336    18A     -0.139336

  @DF-RHF Final Energy: -2572.53366651510851

   => Energetics <=

    Nuclear Repulsion Energy =              0.0000000000000000
    One-Electron Energy =               -3593.6833896813805040
    Two-Electron Energy =                1021.1497231662716558
    Total Energy =                      -2572.5336665151089619
 Dipole X            :       -384.7104768          374.0240434          -10.6864334
 Dipole Y            :          0.0000000            0.0000000            0.0000000
 Dipole Z            :          0.0000000            0.0000000            0.0000000
 Magnitude           :                                                   10.6864334

    SAPT Results
  --------------------------------------------------------------------------------------------------------
    Electrostatics                 93.48115504 [mEh]      58.66031041 [kcal/mol]     245.43473876 [kJ/mol]
      Elst10,r                     93.49457394 [mEh]      58.66873089 [kcal/mol]     245.46997005 [kJ/mol]
      Elst12,r                     -0.01341889 [mEh]      -0.00842048 [kcal/mol]      -0.03523130 [kJ/mol]

    Exchange                        0.02464362 [mEh]       0.01546411 [kcal/mol]       0.06470182 [kJ/mol]
      Exch10                        0.01555425 [mEh]       0.00976044 [kcal/mol]       0.04083768 [kJ/mol]
      Exch10(S^2)                   0.01558284 [mEh]       0.00977838 [kcal/mol]       0.04091273 [kJ/mol]
      Exch11(S^2)                   0.00709630 [mEh]       0.00445300 [kcal/mol]       0.01863134 [kJ/mol]
      Exch12(S^2)                   0.00199307 [mEh]       0.00125067 [kcal/mol]       0.00523280 [kJ/mol]

    Induction                      -2.69971935 [mEh]      -1.69409947 [kcal/mol]      -7.08811217 [kJ/mol]
      Ind20,r                      -2.82749826 [mEh]      -1.77428194 [kcal/mol]      -7.42359566 [kJ/mol]
      Ind22                        -0.26239742 [mEh]      -0.16465687 [kcal/mol]      -0.68892433 [kJ/mol]
      Exch-Ind20,r                  0.11671824 [mEh]       0.07324180 [kcal/mol]       0.30644370 [kJ/mol]
      Exch-Ind22                    0.01083168 [mEh]       0.00679698 [kcal/mol]       0.02843858 [kJ/mol]
      delta HF,r (2)                0.26262641 [mEh]       0.16480056 [kcal/mol]       0.68952554 [kJ/mol]

    Dispersion                     -0.34367227 [mEh]      -0.21565760 [kcal/mol]      -0.90231141 [kJ/mol]
      Disp20                       -0.34828160 [mEh]      -0.21855000 [kcal/mol]      -0.91441321 [kJ/mol]
      Disp21                        0.05392809 [mEh]       0.03384038 [kcal/mol]       0.14158817 [kJ/mol]
      Disp22 (SDQ)                 -0.00234127 [mEh]      -0.00146917 [kcal/mol]      -0.00614700 [kJ/mol]
      Disp22 (T)                   -0.06659778 [mEh]      -0.04179074 [kcal/mol]      -0.17485245 [kJ/mol]
      Est. Disp22 (T)              -0.07396915 [mEh]      -0.04641634 [kcal/mol]      -0.19420598 [kJ/mol]
      Exch-Disp20                   0.02699167 [mEh]       0.01693753 [kcal/mol]       0.07086661 [kJ/mol]

  Total HF                         91.06197458 [mEh]      57.14225175 [kcal/mol]     239.08318132 [kJ/mol]
  Total SAPT0                      90.74068465 [mEh]      56.94063927 [kcal/mol]     238.23963472 [kJ/mol]
  Total SAPT2                      90.48478939 [mEh]      56.78006257 [kcal/mol]     237.56778181 [kJ/mol]
  Total SAPT2+                     90.46240706 [mEh]      56.76601745 [kcal/mol]     237.50901700 [kJ/mol]

  Special recipe for scaled SAPT0 (see Manual):
    Electrostatics sSAPT0          93.49457394 [mEh]      58.66873089 [kcal/mol]     245.46997005 [kJ/mol]
    Exchange sSAPT0                 0.01555425 [mEh]       0.00976044 [kcal/mol]       0.04083768 [kJ/mol]
    Induction sSAPT0               -2.44879478 [mEh]      -1.53664192 [kcal/mol]      -6.42930980 [kJ/mol]
    Dispersion sSAPT0              -0.32143820 [mEh]      -0.20170552 [kcal/mol]      -0.84393589 [kJ/mol]
  Total sSAPT0                     90.73989521 [mEh]      56.94014389 [kcal/mol]     238.23756205 [kJ/mol]
  --------------------------------------------------------------------------------------------------------

*** Psi4 exiting successfully. Buy a developer a beer!
