                               Psi4 1.9 release

  ==> Input File <==

--------------------------------------------------------------------------
MEMORY 60 GB

molecule dimer {
-1 1
Cl     0.000000     0.000000     0.000000
--
-1 1
Br     5.278000     0.000000     0.000000

units ang
no_reorient
no_com
symmetry c1
}

set {
basis        aug-cc-pVTZ
scf_type     df
}

energy("sapt2+")
--------------------------------------------------------------------------

  //              Dimer HF             //
    Molecular point group: c1
  Charge       = -2
  Multiplicity = 1
  Basis Set: AUG-CC-PVTZ
    Blend: AUG-CC-PVTZ
  Basis Set: (AUG-CC-PVTZ AUX)
    Blend: AUG-CC-PVTZ-JKFIT
  @DF-RHF Final Energy: -3032.01019530643907
    Total Energy =                      -3032.0101953064386180
 Dipole X            :       -359.1703879          349.0891072          -10.0812808
 Dipole Y            :          0.0000000            0.0000000            0.0000000
 Dipole Z            :          0.0000000            0.0000000            0.0000000
 Magnitude           :                                                   10.0812808
  //            Monomer A HF           //
    Molecular point group: c1
  Multiplicity = 1
  Basis Set: AUG-CC-PVTZ
    Blend: AUG-CC-PVTZ
  Basis Set: (AUG-CC-PVTZ AUX)
    Blend: AUG-CC-PVTZ-JKFIT
  @DF-RHF Final Energy:  -459.57348328714693
    Total Energy =                       -459.5734832871469280
  //            Monomer B HF           //
    Molecular point group: c1

    Geometry (in Angstrom), charge = -1, multiplicity = 1:

       Center              X                  Y                   Z               Mass
    ------------   -----------------  -----------------  -----------------  -----------------
      Gh(CL)          0.000000000000     0.000000000000     0.000000000000    34.968852682000
         BR           5.278000000000     0.000000000000     0.000000000000    78.918337600000

  Charge       = -1
  Multiplicity = 1
  Basis Set: AUG-CC-PVTZ
    Blend: AUG-CC-PVTZ
  Basis Set: (AUG-CC-PVTZ AUX)
    Blend: AUG-CC-PVTZ-JKFIT

    Orbital Energies [Eh]
    ---------------------

    Doubly Occupied:

       1A   -489.720314     2A    -64.860418     3A    -58.214884
       4A    -58.214884     5A    -58.214883     6A     -9.532842
       7A     -7.140181     8A     -7.140181     9A     -7.140181
      10A     -2.881847    11A     -2.881847    12A     -2.881846
      13A     -2.881846    14A     -2.881844    15A     -0.686000
      16A     -0.139337    17A     -0.139336    18A     -0.139336

  @DF-RHF Final Energy: -2572.53366689043969

   => Energetics <=

    Nuclear Repulsion Energy =              0.0000000000000000
    One-Electron Energy =               -3593.6833186090834715
    Two-Electron Energy =                1021.1496517186440087
    Total Energy =                      -2572.5336668904392354
 Dipole X            :       -359.0630775          349.0891072           -9.9739704
 Dipole Y            :          0.0000000            0.0000000            0.0000000
 Dipole Z            :         -0.0000000            0.0000000           -0.0000000
 Magnitude           :                                                    9.9739704

    SAPT Results
  --------------------------------------------------------------------------------------------------------
    Electrostatics                100.03660729 [mEh]      62.77391880 [kcal/mol]     262.64607627 [kJ/mol]
      Elst10,r                    100.08222862 [mEh]      62.80254661 [kcal/mol]     262.76585504 [kJ/mol]
      Elst12,r                     -0.04562132 [mEh]      -0.02862781 [kcal/mol]      -0.11977877 [kJ/mol]

    Exchange                        0.09064622 [mEh]       0.05688136 [kcal/mol]       0.23799161 [kJ/mol]
      Exch10                        0.06297138 [mEh]       0.03951514 [kcal/mol]       0.16533134 [kJ/mol]
      Exch10(S^2)                   0.06308383 [mEh]       0.03958570 [kcal/mol]       0.16562658 [kJ/mol]
      Exch11(S^2)                   0.01778559 [mEh]       0.01116062 [kcal/mol]       0.04669605 [kJ/mol]
      Exch12(S^2)                   0.00988925 [mEh]       0.00620560 [kcal/mol]       0.02596422 [kJ/mol]

    Induction                      -3.53750651 [mEh]      -2.21981885 [kcal/mol]      -9.28772206 [kJ/mol]
      Ind20,r                      -3.84897400 [mEh]      -2.41526765 [kcal/mol]     -10.10547984 [kJ/mol]
      Ind22                        -0.37396507 [mEh]      -0.23466662 [kcal/mol]      -0.98184515 [kJ/mol]
      Exch-Ind20,r                  0.27570501 [mEh]       0.17300751 [kcal/mol]       0.72386341 [kJ/mol]
      Exch-Ind22                    0.02678741 [mEh]       0.01680935 [kcal/mol]       0.07033033 [kJ/mol]
      delta HF,r (2)                0.38294013 [mEh]       0.24029856 [kcal/mol]       1.00540919 [kJ/mol]

    Dispersion                     -0.54579744 [mEh]      -0.34249307 [kcal/mol]      -1.43299099 [kJ/mol]
      Disp20                       -0.56746090 [mEh]      -0.35608709 [kcal/mol]      -1.48986838 [kJ/mol]
      Disp21                        0.08279383 [mEh]       0.05195391 [kcal/mol]       0.21737518 [kJ/mol]
      Disp22 (SDQ)                 -0.00380283 [mEh]      -0.00238631 [kcal/mol]      -0.00998433 [kJ/mol]
      Disp22 (T)                   -0.10391223 [mEh]      -0.06520591 [kcal/mol]      -0.27282153 [kJ/mol]
      Est. Disp22 (T)              -0.11945883 [mEh]      -0.07496154 [kcal/mol]      -0.31363910 [kJ/mol]
      Exch-Disp20                   0.06213128 [mEh]       0.03898797 [kcal/mol]       0.16312565 [kJ/mol]

  Total HF                         96.95487115 [mEh]      60.84010017 [kcal/mol]     254.55497913 [kJ/mol]
  Total SAPT0                      96.44954153 [mEh]      60.52300105 [kcal/mol]     253.22823640 [kJ/mol]
  Total SAPT2                      96.08441738 [mEh]      60.29388219 [kcal/mol]     252.26960308 [kJ/mol]
  Total SAPT2+                     96.04394956 [mEh]      60.26848825 [kcal/mol]     252.16335482 [kJ/mol]

  Special recipe for scaled SAPT0 (see Manual):
    Electrostatics sSAPT0         100.08222862 [mEh]      62.80254661 [kcal/mol]     262.76585504 [kJ/mol]
    Exchange sSAPT0                 0.06297138 [mEh]       0.03951514 [kcal/mol]       0.16533134 [kJ/mol]
    Induction sSAPT0               -3.19180063 [mEh]      -2.00288514 [kcal/mol]      -8.38007141 [kJ/mol]
    Dispersion sSAPT0              -0.50566129 [mEh]      -0.31730725 [kcal/mol]      -1.32761353 [kJ/mol]
  Total sSAPT0                     96.44773808 [mEh]      60.52186937 [kcal/mol]     253.22350143 [kJ/mol]
  --------------------------------------------------------------------------------------------------------

*** Psi4 exiting successfully. Buy a developer a beer!
