                               Psi4 1.9 release

  ==> Input File <==

--------------------------------------------------------------------------
MEMORY 60 GB

molecule dimer {
-1 1
Cl     0.000000     0.000000     0.000000
--
-1 1
Br     7.540000     0.000000     0.000000

units ang
no_reorient
no_com
symmetry c1
}

set {
basis        aug-cc-pVTZ
scf_type     df
}

energy("sapt2+")
--------------------------------------------------------------------------

  //              Dimer HF             //
    Molecular point group: c1
  Charge       = -2
  Multiplicity = 1
  Basis Set: AUG-CC-PVTZ
    Blend: AUG-CC-PVTZ
  Basis Set: (AUG-CC-PVTZ AUX)
    Blend: AUG-CC-PVTZ-JKFIT
  @DF-RHF Final Energy: -3032.03773722913638
    Total Energy =                      -3032.0377372291363827
 Dipole X            :       -513.0023917          498.6987245          -14.3036672
 Dipole Y            :          0.0000000            0.0000000            0.0000000
 Dipole Z            :         -0.0000000            0.0000000           -0.0000000
 Magnitude           :                                                   14.3036672
  //            Monomer A HF           //
    Molecular point group: c1
  Multiplicity = 1
  Basis Set: AUG-CC-PVTZ
    Blend: AUG-CC-PVTZ
  Basis Set: (AUG-CC-PVTZ AUX)
    Blend: AUG-CC-PVTZ-JKFIT
  @DF-RHF Final Energy:  -459.57348206148743
    Total Energy =                       -459.5734820614874252
  //            Monomer B HF           //
    Molecular point group: c1

    Geometry (in Angstrom), charge = -1, multiplicity = 1:

       Center              X                  Y                   Z               Mass
    ------------   -----------------  -----------------  -----------------  -----------------
      Gh(CL)          0.000000000000     0.000000000000     0.000000000000    34.968852682000
         BR           7.540000000000     0.000000000000     0.000000000000    78.918337600000

  Charge       = -1
  Multiplicity = 1
  Basis Set: AUG-CC-PVTZ
    Blend: AUG-CC-PVTZ
  Basis Set: (AUG-CC-PVTZ AUX)
    Blend: AUG-CC-PVTZ-JKFIT

    Orbital Energies [Eh]
    ---------------------

    Doubly Occupied:

       1A   -489.720291     2A    -64.860401     3A    -58.214866
       4A    -58.214866     5A    -58.214866     6A     -9.532838
       7A     -7.140176     8A     -7.140176     9A     -7.140176
      10A     -2.881841    11A     -2.881841    12A     -2.881841
      13A     -2.881841    14A     -2.881841    15A     -0.686001
      16A     -0.139337    17A     -0.139337    18A     -0.139337

  @DF-RHF Final Energy: -2572.53366584189962

   => Energetics <=

    Nuclear Repulsion Energy =              0.0000000000000000
    One-Electron Energy =               -3593.6835866841361167
    Two-Electron Energy =                1021.1499208422369520
    Total Energy =                      -2572.5336658418991647
 Dipole X            :       -512.9473281          498.6987245          -14.2486036
 Dipole Y            :         -0.0000000            0.0000000           -0.0000000
 Dipole Z            :          0.0000000            0.0000000            0.0000000
 Magnitude           :                                                   14.2486036

    SAPT Results
  --------------------------------------------------------------------------------------------------------
    Electrostatics                 70.18268679 [mEh]      44.04030085 [kcal/mol]     184.26461877 [kJ/mol]
      Elst10,r                     70.17686729 [mEh]      44.03664906 [kcal/mol]     184.24933968 [kJ/mol]
      Elst12,r                      0.00581950 [mEh]       0.00365179 [kcal/mol]       0.01527910 [kJ/mol]

    Exchange                       -0.00065769 [mEh]      -0.00041270 [kcal/mol]      -0.00172676 [kJ/mol]
      Exch10                       -0.00048947 [mEh]      -0.00030715 [kcal/mol]      -0.00128510 [kJ/mol]
      Exch10(S^2)                  -0.00048945 [mEh]      -0.00030713 [kcal/mol]      -0.00128505 [kJ/mol]
      Exch11(S^2)                   0.00007719 [mEh]       0.00004844 [kcal/mol]       0.00020267 [kJ/mol]
      Exch12(S^2)                  -0.00024541 [mEh]      -0.00015400 [kcal/mol]      -0.00064432 [kJ/mol]

    Induction                      -0.83084632 [mEh]      -0.52136394 [kcal/mol]      -2.18138673 [kJ/mol]
      Ind20,r                      -0.80545072 [mEh]      -0.50542796 [kcal/mol]      -2.11471058 [kJ/mol]
      Ind22                        -0.06531045 [mEh]      -0.04098293 [kcal/mol]      -0.17147256 [kJ/mol]
      Exch-Ind20,r                  0.00206807 [mEh]       0.00129773 [kcal/mol]       0.00542972 [kJ/mol]
      Exch-Ind22                    0.00016769 [mEh]       0.00010523 [kcal/mol]       0.00044027 [kJ/mol]
      delta HF,r (2)                0.03767909 [mEh]       0.02364398 [kcal/mol]       0.09892643 [kJ/mol]

    Dispersion                     -0.04980656 [mEh]      -0.03125409 [kcal/mol]      -0.13076710 [kJ/mol]
      Disp20                       -0.04943470 [mEh]      -0.03102074 [kcal/mol]      -0.12979078 [kJ/mol]
      Disp21                        0.00956870 [mEh]       0.00600445 [kcal/mol]       0.02512263 [kJ/mol]
      Disp22 (SDQ)                  0.00008316 [mEh]       0.00005218 [kcal/mol]       0.00021834 [kJ/mol]
      Disp22 (T)                   -0.01006614 [mEh]      -0.00631660 [kcal/mol]      -0.02642865 [kJ/mol]
      Est. Disp22 (T)              -0.01043688 [mEh]      -0.00654924 [kcal/mol]      -0.02740204 [kJ/mol]
      Exch-Disp20                   0.00041316 [mEh]       0.00025926 [kcal/mol]       0.00108475 [kJ/mol]

  Total HF                         69.41067425 [mEh]      43.55585567 [kcal/mol]     182.23770014 [kJ/mol]
  Total SAPT0                      69.36165271 [mEh]      43.52509419 [kcal/mol]     182.10899411 [kJ/mol]
  Total SAPT2                      69.30216124 [mEh]      43.48776273 [kcal/mol]     181.95279926 [kJ/mol]
  Total SAPT2+                     69.30137622 [mEh]      43.48727012 [kcal/mol]     181.95073820 [kJ/mol]

  Special recipe for scaled SAPT0 (see Manual):
    Electrostatics sSAPT0          70.17686729 [mEh]      44.03664906 [kcal/mol]     184.24933968 [kJ/mol]
    Exchange sSAPT0                -0.00048947 [mEh]      -0.00030715 [kcal/mol]      -0.00128510 [kJ/mol]
    Induction sSAPT0               -0.76570357 [mEh]      -0.48048624 [kcal/mol]      -2.01035444 [kJ/mol]
    Dispersion sSAPT0              -0.04902154 [mEh]      -0.03076148 [kcal/mol]      -0.12870603 [kJ/mol]
  Total sSAPT0                     69.36165271 [mEh]      43.52509419 [kcal/mol]     182.10899411 [kJ/mol]
  --------------------------------------------------------------------------------------------------------

*** Psi4 exiting successfully. Buy a developer a beer!
