                               Psi4 1.9 release

  ==> Input File <==

--------------------------------------------------------------------------
MEMORY 60 GB

molecule dimer {
-1 1
Cl     0.000000     0.000000     0.000000
--
-1 1
Br     4.147000     0.000000     0.000000

units ang
no_reorient
no_com
symmetry c1
}

set {
basis        aug-cc-pVTZ
scf_type     df
}

energy("sapt2+")
--------------------------------------------------------------------------

  //              Dimer HF             //
    Molecular point group: c1
  Charge       = -2
  Multiplicity = 1
  Basis Set: AUG-CC-PVTZ
    Blend: AUG-CC-PVTZ
  Basis Set: (AUG-CC-PVTZ AUX)
    Blend: AUG-CC-PVTZ-JKFIT
  @DF-RHF Final Energy: -3031.98728488366896
    Total Energy =                      -3031.9872848836689627
 Dipole X            :       -282.2845347          274.2842985           -8.0002362
 Dipole Y            :         -0.0000000            0.0000000           -0.0000000
 Dipole Z            :          0.0000000            0.0000000            0.0000000
 Magnitude           :                                                    8.0002362
  //            Monomer A HF           //
    Molecular point group: c1
  Multiplicity = 1
  Basis Set: AUG-CC-PVTZ
    Blend: AUG-CC-PVTZ
  Basis Set: (AUG-CC-PVTZ AUX)
    Blend: AUG-CC-PVTZ-JKFIT
  @DF-RHF Final Energy:  -459.57348562229129
    Total Energy =                       -459.5734856222912867
  //            Monomer B HF           //
    Molecular point group: c1

    Geometry (in Angstrom), charge = -1, multiplicity = 1:

       Center              X                  Y                   Z               Mass
    ------------   -----------------  -----------------  -----------------  -----------------
      Gh(CL)          0.000000000000     0.000000000000     0.000000000000    34.968852682000
         BR           4.147000000000     0.000000000000     0.000000000000    78.918337600000

  Charge       = -1
  Multiplicity = 1
  Basis Set: AUG-CC-PVTZ
    Blend: AUG-CC-PVTZ
  Basis Set: (AUG-CC-PVTZ AUX)
    Blend: AUG-CC-PVTZ-JKFIT

    Orbital Energies [Eh]
    ---------------------

    Doubly Occupied:

       1A   -489.720371     2A    -64.860461     3A    -58.214929
       4A    -58.214929     5A    -58.214928     6A     -9.532856
       7A     -7.140196     8A     -7.140196     9A     -7.140193
      10A     -2.881862    11A     -2.881862    12A     -2.881862
      13A     -2.881862    14A     -2.881856    15A     -0.685999
      16A     -0.139338    17A     -0.139335    18A     -0.139335

  @DF-RHF Final Energy: -2572.53366927659408

   => Energetics <=

    Nuclear Repulsion Energy =              0.0000000000000000
    One-Electron Energy =               -3593.6825937013363728
    Two-Electron Energy =                1021.1489244247420629
    Total Energy =                      -2572.5336692765940825
 Dipole X            :       -282.1211584          274.2842985           -7.8368599
 Dipole Y            :          0.0000000            0.0000000            0.0000000
 Dipole Z            :          0.0000000            0.0000000            0.0000000
 Magnitude           :                                                    7.8368599

    SAPT Results
  --------------------------------------------------------------------------------------------------------
    Electrostatics                124.47373685 [mEh]      78.10844911 [kcal/mol]     326.80575106 [kJ/mol]
      Elst10,r                    125.05170021 [mEh]      78.47112660 [kcal/mol]     328.32319368 [kJ/mol]
      Elst12,r                     -0.57796337 [mEh]      -0.36267749 [kcal/mol]      -1.51744262 [kJ/mol]

    Exchange                        2.56645608 [mEh]       1.61047550 [kcal/mol]       6.73822950 [kJ/mol]
      Exch10                        2.06479755 [mEh]       1.29568002 [kcal/mol]       5.42112521 [kJ/mol]
      Exch10(S^2)                   2.06683488 [mEh]       1.29695847 [kcal/mol]       5.42647423 [kJ/mol]
      Exch11(S^2)                   0.26818618 [mEh]       0.16828937 [kcal/mol]       0.70412273 [kJ/mol]
      Exch12(S^2)                   0.23347235 [mEh]       0.14650611 [kcal/mol]       0.61298156 [kJ/mol]

    Induction                      -8.25270540 [mEh]      -5.17865082 [kcal/mol]     -21.66747505 [kJ/mol]
      Ind20,r                     -12.33862151 [mEh]      -7.74260189 [kcal/mol]     -32.39504631 [kJ/mol]
      Ind22                        -1.51984444 [mEh]      -0.95371678 [kcal/mol]      -3.99035102 [kJ/mol]
      Exch-Ind20,r                  4.16975720 [mEh]       2.61656214 [kcal/mol]      10.94769601 [kJ/mol]
      Exch-Ind22                    0.51362158 [mEh]       0.32230241 [kcal/mol]       1.34851327 [kJ/mol]
      delta HF,r (2)                0.92238177 [mEh]       0.57880330 [kcal/mol]       2.42171300 [kJ/mol]

    Dispersion                     -2.45649450 [mEh]      -1.54147357 [kcal/mol]      -6.44952541 [kJ/mol]
      Disp20                       -2.98111320 [mEh]      -1.87067678 [kcal/mol]      -7.82691163 [kJ/mol]
      Disp21                        0.39411760 [mEh]       0.24731253 [kcal/mol]       1.03475562 [kJ/mol]
      Disp22 (SDQ)                  0.00416810 [mEh]       0.00261552 [kcal/mol]       0.01094334 [kJ/mol]
      Disp22 (T)                   -0.51729951 [mEh]      -0.32461034 [kcal/mol]      -1.35816967 [kJ/mol]
      Est. Disp22 (T)              -0.59518786 [mEh]      -0.37348602 [kcal/mol]      -1.56266552 [kJ/mol]
      Exch-Disp20                   0.72152087 [mEh]       0.45276118 [kcal/mol]       1.89435278 [kJ/mol]

  Total HF                        119.87001522 [mEh]      75.21957017 [kcal/mol]     314.71868159 [kJ/mol]
  Total SAPT0                     117.61042288 [mEh]      73.80165457 [kcal/mol]     308.78612274 [kJ/mol]
  Total SAPT2                     116.52789519 [mEh]      73.12235819 [kcal/mol]     305.94394666 [kJ/mol]
  Total SAPT2+                    116.33099302 [mEh]      72.99880022 [kcal/mol]     305.42698011 [kJ/mol]

  Special recipe for scaled SAPT0 (see Manual):
    Electrostatics sSAPT0         125.05170021 [mEh]      78.47112660 [kcal/mol]     328.32319368 [kJ/mol]
    Exchange sSAPT0                 2.06479755 [mEh]       1.29568002 [kcal/mol]       5.42112521 [kJ/mol]
    Induction sSAPT0               -7.25880112 [mEh]      -4.55496647 [kcal/mol]     -19.05797970 [kJ/mol]
    Dispersion sSAPT0              -2.26172390 [mEh]      -1.41925317 [kcal/mol]      -5.93815527 [kJ/mol]
  Total sSAPT0                    117.59597275 [mEh]      73.79258698 [kcal/mol]     308.74818392 [kJ/mol]
  --------------------------------------------------------------------------------------------------------

*** Psi4 exiting successfully. Buy a developer a beer!
