                               Psi4 1.9 release

  ==> Input File <==

--------------------------------------------------------------------------
MEMORY 60 GB

molecule dimer {
-1 1
Cl     0.000000     0.000000     0.000000
--
-1 1
Br     4.524000     0.000000     0.000000

units ang
no_reorient
no_com
symmetry c1
}

set {
basis        aug-cc-pVTZ
scf_type     df
}

energy("sapt2+")
--------------------------------------------------------------------------

  //              Dimer HF             //
    Molecular point group: c1
  Charge       = -2
  Multiplicity = 1
  Basis Set: AUG-CC-PVTZ
    Blend: AUG-CC-PVTZ
  Basis Set: (AUG-CC-PVTZ AUX)
    Blend: AUG-CC-PVTZ-JKFIT
  @DF-RHF Final Energy: -3031.99604108292442
    Total Energy =                      -3031.9960410829244211
 Dipole X            :       -307.9088783          299.2192347           -8.6896436
 Dipole Y            :         -0.0000000            0.0000000           -0.0000000
 Dipole Z            :         -0.0000000            0.0000000           -0.0000000
 Magnitude           :                                                    8.6896436
  //            Monomer A HF           //
    Molecular point group: c1
  Multiplicity = 1
  Basis Set: AUG-CC-PVTZ
    Blend: AUG-CC-PVTZ
  Basis Set: (AUG-CC-PVTZ AUX)
    Blend: AUG-CC-PVTZ-JKFIT
  @DF-RHF Final Energy:  -459.57348433336966
    Total Energy =                       -459.5734843333696062
  //            Monomer B HF           //
    Molecular point group: c1

    Geometry (in Angstrom), charge = -1, multiplicity = 1:

       Center              X                  Y                   Z               Mass
    ------------   -----------------  -----------------  -----------------  -----------------
      Gh(CL)          0.000000000000     0.000000000000     0.000000000000    34.968852682000
         BR           4.524000000000     0.000000000000     0.000000000000    78.918337600000

  Charge       = -1
  Multiplicity = 1
  Basis Set: AUG-CC-PVTZ
    Blend: AUG-CC-PVTZ
  Basis Set: (AUG-CC-PVTZ AUX)
    Blend: AUG-CC-PVTZ-JKFIT

    Orbital Energies [Eh]
    ---------------------

    Doubly Occupied:

       1A   -489.720344     2A    -64.860442     3A    -58.214909
       4A    -58.214909     5A    -58.214908     6A     -9.532850
       7A     -7.140190     8A     -7.140190     9A     -7.140188
      10A     -2.881856    11A     -2.881856    12A     -2.881856
      13A     -2.881856    14A     -2.881850    15A     -0.686000
      16A     -0.139337    17A     -0.139336    18A     -0.139336

  @DF-RHF Final Energy: -2572.53366795665988

   => Energetics <=

    Nuclear Repulsion Energy =              0.0000000000000000
    One-Electron Energy =               -3593.6829074536108237
    Two-Electron Energy =                1021.1492394969511679
    Total Energy =                      -2572.5336679566598832
 Dipole X            :       -307.7685394          299.2192347           -8.5493047
 Dipole Y            :          0.0000000            0.0000000            0.0000000
 Dipole Z            :          0.0000000            0.0000000            0.0000000
 Magnitude           :                                                    8.5493047

    SAPT Results
  --------------------------------------------------------------------------------------------------------
    Electrostatics                115.66988708 [mEh]      72.58394997 [kcal/mol]     303.69124668 [kJ/mol]
      Elst10,r                    115.93808709 [mEh]      72.75224802 [kcal/mol]     304.39540573 [kJ/mol]
      Elst12,r                     -0.26820002 [mEh]      -0.16829805 [kcal/mol]      -0.70415905 [kJ/mol]

    Exchange                        0.88361961 [mEh]       0.55447968 [kcal/mol]       2.31994297 [kJ/mol]
      Exch10                        0.68241955 [mEh]       0.42822473 [kcal/mol]       1.79169228 [kJ/mol]
      Exch10(S^2)                   0.68366060 [mEh]       0.42900350 [kcal/mol]       1.79495065 [kJ/mol]
      Exch11(S^2)                   0.10990074 [mEh]       0.06896376 [kcal/mol]       0.28854437 [kJ/mol]
      Exch12(S^2)                   0.09129932 [mEh]       0.05729119 [kcal/mol]       0.23970633 [kJ/mol]

    Induction                      -6.21120013 [mEh]      -3.89758693 [kcal/mol]     -16.30750370 [kJ/mol]
      Ind20,r                      -7.87823520 [mEh]      -4.94366723 [kcal/mol]     -20.68430367 [kJ/mol]
      Ind22                        -0.88538576 [mEh]      -0.55558795 [kcal/mol]      -2.32458000 [kJ/mol]
      Exch-Ind20,r                  1.63266608 [mEh]       1.02451343 [kcal/mol]       4.28656420 [kJ/mol]
      Exch-Ind22                    0.18348517 [mEh]       0.11513868 [kcal/mol]       0.48174024 [kJ/mol]
      delta HF,r (2)                0.73626959 [mEh]       0.46201614 [kcal/mol]       1.93307554 [kJ/mol]

    Dispersion                     -1.47018491 [mEh]      -0.92255496 [kcal/mol]      -3.85996994 [kJ/mol]
      Disp20                       -1.66684788 [mEh]      -1.04596284 [kcal/mol]      -4.37630851 [kJ/mol]
      Disp21                        0.22219255 [mEh]       0.13942793 [kcal/mol]       0.58336646 [kJ/mol]
      Disp22 (SDQ)                 -0.00440659 [mEh]      -0.00276518 [kcal/mol]      -0.01156950 [kJ/mol]
      Disp22 (T)                   -0.30109037 [mEh]      -0.18893706 [kcal/mol]      -0.79051266 [kJ/mol]
      Est. Disp22 (T)              -0.34302769 [mEh]      -0.21525312 [kcal/mol]      -0.90061907 [kJ/mol]
      Exch-Disp20                   0.32190470 [mEh]       0.20199825 [kcal/mol]       0.84516068 [kJ/mol]

  Total HF                        111.11120711 [mEh]      69.72333510 [kcal/mol]     291.72243406 [kJ/mol]
  Total SAPT0                     109.76626393 [mEh]      68.87937052 [kcal/mol]     288.19128624 [kJ/mol]
  Total SAPT2                     108.99736338 [mEh]      68.39687814 [kcal/mol]     286.17253812 [kJ/mol]
  Total SAPT2+                    108.87212165 [mEh]      68.31828776 [kcal/mol]     285.84371601 [kJ/mol]

  Special recipe for scaled SAPT0 (see Manual):
    Electrostatics sSAPT0         115.93808709 [mEh]      72.75224802 [kcal/mol]     304.39540573 [kJ/mol]
    Exchange sSAPT0                 0.68241955 [mEh]       0.42822473 [kcal/mol]       1.79169228 [kJ/mol]
    Induction sSAPT0               -5.51817475 [mEh]      -3.46270693 [kcal/mol]     -14.48796581 [kJ/mol]
    Dispersion sSAPT0              -1.34669306 [mEh]      -0.84506265 [kcal/mol]      -3.53574214 [kJ/mol]
  Total sSAPT0                    109.75563883 [mEh]      68.87270317 [kcal/mol]     288.16339005 [kJ/mol]
  --------------------------------------------------------------------------------------------------------

*** Psi4 exiting successfully. Buy a developer a beer!
