                               Psi4 1.9 release

  ==> Input File <==

--------------------------------------------------------------------------
MEMORY 60 GB

molecule dimer {
-1 1
Cl     0.000000     0.000000     0.000000
--
-1 1
Br     3.770000     0.000000     0.000000

units ang
no_reorient
no_com
symmetry c1
}

set {
basis        aug-cc-pVTZ
scf_type     df
}

energy("sapt2+")
--------------------------------------------------------------------------

  //              Dimer HF             //
    Molecular point group: c1
  Charge       = -2
  Multiplicity = 1
  Basis Set: AUG-CC-PVTZ
    Blend: AUG-CC-PVTZ
  Basis Set: (AUG-CC-PVTZ AUX)
    Blend: AUG-CC-PVTZ-JKFIT
  @DF-RHF Final Energy: -3031.97657539678676
    Total Energy =                      -3031.9765753967872115
 Dipole X            :       -256.6687200          249.3493623           -7.3193578
 Dipole Y            :         -0.0000000            0.0000000           -0.0000000
 Dipole Z            :          0.0000000            0.0000000            0.0000000
 Magnitude           :                                                    7.3193578
  //            Monomer A HF           //
    Molecular point group: c1
  Multiplicity = 1
  Basis Set: AUG-CC-PVTZ
    Blend: AUG-CC-PVTZ
  Basis Set: (AUG-CC-PVTZ AUX)
    Blend: AUG-CC-PVTZ-JKFIT
  @DF-RHF Final Energy:  -459.57348890306031
    Total Energy =                       -459.5734889030603085
  //            Monomer B HF           //
    Molecular point group: c1

    Geometry (in Angstrom), charge = -1, multiplicity = 1:

       Center              X                  Y                   Z               Mass
    ------------   -----------------  -----------------  -----------------  -----------------
      Gh(CL)          0.000000000000     0.000000000000     0.000000000000    34.968852682000
         BR           3.770000000000     0.000000000000     0.000000000000    78.918337600000

  Charge       = -1
  Multiplicity = 1
  Basis Set: AUG-CC-PVTZ
    Blend: AUG-CC-PVTZ
  Basis Set: (AUG-CC-PVTZ AUX)
    Blend: AUG-CC-PVTZ-JKFIT

    Orbital Energies [Eh]
    ---------------------

    Doubly Occupied:

       1A   -489.720402     2A    -64.860482     3A    -58.214951
       4A    -58.214951     5A    -58.214951     6A     -9.532862
       7A     -7.140202     8A     -7.140202     9A     -7.140198
      10A     -2.881869    11A     -2.881869    12A     -2.881868
      13A     -2.881868    14A     -2.881863    15A     -0.685999
      16A     -0.139338    17A     -0.139335    18A     -0.139335

  @DF-RHF Final Energy: -2572.53366998793263

   => Energetics <=

    Nuclear Repulsion Energy =              0.0000000000000000
    One-Electron Energy =               -3593.6822459653044461
    Two-Electron Energy =                1021.1485759773718200
    Total Energy =                      -2572.5336699879326261
 Dipole X            :       -256.4737268          249.3493623           -7.1243645
 Dipole Y            :          0.0000000            0.0000000            0.0000000
 Dipole Z            :         -0.0000000            0.0000000           -0.0000000
 Magnitude           :                                                    7.1243645

    SAPT Results
  --------------------------------------------------------------------------------------------------------
    Electrostatics                132.82562514 [mEh]      83.34933813 [kcal/mol]     348.73363075 [kJ/mol]
      Elst10,r                    134.01499186 [mEh]      84.09567702 [kcal/mol]     351.85631265 [kJ/mol]
      Elst12,r                     -1.18936672 [mEh]      -0.74633889 [kcal/mol]      -3.12268191 [kJ/mol]

    Exchange                        7.26574468 [mEh]       4.55932362 [kcal/mol]      19.07621003 [kJ/mol]
      Exch10                        6.08129929 [mEh]       3.81607292 [kcal/mol]      15.96644908 [kJ/mol]
      Exch10(S^2)                   6.06932576 [mEh]       3.80855941 [kcal/mol]      15.93501259 [kJ/mol]
      Exch11(S^2)                   0.63588127 [mEh]       0.39902152 [kcal/mol]       1.66950605 [kJ/mol]
      Exch12(S^2)                   0.54856412 [mEh]       0.34422918 [kcal/mol]       1.44025490 [kJ/mol]

    Induction                     -10.90568608 [mEh]      -6.84342133 [kcal/mol]     -28.63287487 [kJ/mol]
      Ind20,r                     -21.71721562 [mEh]     -13.62775854 [kcal/mol]     -57.01854174 [kJ/mol]
      Ind22                        -2.86691353 [mEh]      -1.79901540 [kcal/mol]      -7.52708043 [kJ/mol]
      Exch-Ind20,r                 11.16591244 [mEh]       7.00671584 [kcal/mol]      29.31609907 [kJ/mol]
      Exch-Ind22                    1.47402439 [mEh]       0.92496427 [kcal/mol]       3.87005049 [kJ/mol]
      delta HF,r (2)                1.03850623 [mEh]       0.65167250 [kcal/mol]       2.72659774 [kJ/mol]

    Dispersion                     -4.13196773 [mEh]      -2.59284890 [kcal/mol]     -10.84847979 [kJ/mol]
      Disp20                       -5.45967855 [mEh]      -3.42600002 [kcal/mol]     -14.33438407 [kJ/mol]
      Disp21                        0.74015132 [mEh]       0.46445196 [kcal/mol]       1.94326701 [kJ/mol]
      Disp22 (SDQ)                  0.03450177 [mEh]       0.02165019 [kcal/mol]       0.09058438 [kJ/mol]
      Disp22 (T)                   -0.88856811 [mEh]      -0.55758491 [kcal/mol]      -2.33293526 [kJ/mol]
      Est. Disp22 (T)              -1.04350627 [mEh]      -0.65481007 [kcal/mol]      -2.73972532 [kJ/mol]
      Exch-Disp20                   1.59656400 [mEh]       1.00185904 [kcal/mol]       4.19177821 [kJ/mol]

  Total HF                        130.58349421 [mEh]      81.94237973 [kcal/mol]     342.84691680 [kJ/mol]
  Total SAPT0                     126.72037965 [mEh]      79.51823875 [kcal/mol]     332.70431094 [kJ/mol]
  Total SAPT2                     125.32256918 [mEh]      78.64109944 [kcal/mol]     329.03436005 [kJ/mol]
  Total SAPT2+                    125.05371600 [mEh]      78.47239152 [kcal/mol]     328.32848612 [kJ/mol]

  Special recipe for scaled SAPT0 (see Manual):
    Electrostatics sSAPT0         134.01499186 [mEh]      84.09567702 [kcal/mol]     351.85631265 [kJ/mol]
    Exchange sSAPT0                 6.08129929 [mEh]       3.81607292 [kcal/mol]      15.96644908 [kJ/mol]
    Induction sSAPT0               -9.44658236 [mEh]      -5.92781993 [kcal/mol]     -24.80199857 [kJ/mol]
    Dispersion sSAPT0              -3.85364683 [mEh]      -2.41819989 [kcal/mol]     -10.11774835 [kJ/mol]
  Total sSAPT0                    126.79606196 [mEh]      79.56573012 [kcal/mol]     332.90301482 [kJ/mol]
  --------------------------------------------------------------------------------------------------------

*** Psi4 exiting successfully. Buy a developer a beer!
