                               Psi4 1.9 release

  ==> Input File <==

--------------------------------------------------------------------------
MEMORY 60 GB

molecule dimer {
-1 1
Br     0.000000     0.000000     0.000000
--
-1 1
Br     4.704000     0.000000     0.000000

units ang
no_reorient
no_com
symmetry c1
}

set {
basis        aug-cc-pVTZ
scf_type     df
}

energy("sapt2+")
--------------------------------------------------------------------------

  //              Dimer HF             //
    Molecular point group: c1
  Charge       = -2
  Multiplicity = 1
  Basis Set: AUG-CC-PVTZ
    Blend: AUG-CC-PVTZ
  Basis Set: (AUG-CC-PVTZ AUX)
    Blend: AUG-CC-PVTZ-JKFIT
  @DF-RHF Final Energy: -5144.96065030487443
    Total Energy =                      -5144.9606503048744344
 Dipole X            :       -320.0137810          311.1245093           -8.8892717
 Dipole Y            :          0.0000000            0.0000000            0.0000000
 Dipole Z            :          0.0000000            0.0000000            0.0000000
 Magnitude           :                                                    8.8892717
  //            Monomer A HF           //
    Molecular point group: c1
  Multiplicity = 1
  Basis Set: AUG-CC-PVTZ
    Blend: AUG-CC-PVTZ
  Basis Set: (AUG-CC-PVTZ AUX)
    Blend: AUG-CC-PVTZ-JKFIT
  @DF-RHF Final Energy: -2572.53366807886641
    Total Energy =                      -2572.5336680788659578
  //            Monomer B HF           //
    Molecular point group: c1

    Geometry (in Angstrom), charge = -1, multiplicity = 1:

       Center              X                  Y                   Z               Mass
    ------------   -----------------  -----------------  -----------------  -----------------
      Gh(BR)          0.000000000000     0.000000000000     0.000000000000    78.918337600000
         BR           4.704000000000     0.000000000000     0.000000000000    78.918337600000

  Charge       = -1
  Multiplicity = 1
  Basis Set: AUG-CC-PVTZ
    Blend: AUG-CC-PVTZ
  Basis Set: (AUG-CC-PVTZ AUX)
    Blend: AUG-CC-PVTZ-JKFIT

    Orbital Energies [Eh]
    ---------------------

    Doubly Occupied:

       1A   -489.720351     2A    -64.860446     3A    -58.214914
       4A    -58.214914     5A    -58.214913     6A     -9.532851
       7A     -7.140192     8A     -7.140192     9A     -7.140190
      10A     -2.881858    11A     -2.881858    12A     -2.881857
      13A     -2.881857    14A     -2.881852    15A     -0.686000
      16A     -0.139337    17A     -0.139337    18A     -0.139337

  @DF-RHF Final Energy: -2572.53366807878501

   => Energetics <=

    Nuclear Repulsion Energy =              0.0000000000000000
    One-Electron Energy =               -3593.6828232491752715
    Two-Electron Energy =                1021.1491551703902587
    Total Energy =                      -2572.5336680787850128
 Dipole X            :       -320.0139329          311.1245093           -8.8894236
 Dipole Y            :         -0.0000000            0.0000000           -0.0000000
 Dipole Z            :         -0.0000000            0.0000000           -0.0000000
 Magnitude           :                                                    8.8894236

    SAPT Results
  --------------------------------------------------------------------------------------------------------
    Electrostatics                110.25925082 [mEh]      69.18872446 [kcal/mol]     289.48562316 [kJ/mol]
      Elst10,r                    110.48529458 [mEh]      69.33056906 [kcal/mol]     290.07910096 [kJ/mol]
      Elst12,r                     -0.22604376 [mEh]      -0.14184460 [kcal/mol]      -0.59347781 [kJ/mol]

    Exchange                        0.87283624 [mEh]       0.54771301 [kcal/mol]       2.29163124 [kJ/mol]
      Exch10                        0.66899737 [mEh]       0.41980219 [kcal/mol]       1.75645235 [kJ/mol]
      Exch10(S^2)                   0.67015817 [mEh]       0.42053060 [kcal/mol]       1.75950002 [kJ/mol]
      Exch11(S^2)                   0.13539029 [mEh]       0.08495869 [kcal/mol]       0.35546716 [kJ/mol]
      Exch12(S^2)                   0.06844858 [mEh]       0.04295213 [kcal/mol]       0.17971173 [kJ/mol]

    Induction                      -5.16011197 [mEh]      -3.23801914 [kcal/mol]     -13.54787210 [kJ/mol]
      Ind20,r                      -8.41499230 [mEh]      -5.28048739 [kcal/mol]     -22.09355924 [kJ/mol]
      Ind22                        -0.94163748 [mEh]      -0.59088644 [kcal/mol]      -2.47226888 [kJ/mol]
      Exch-Ind20,r                  2.23382250 [mEh]       1.40174478 [kcal/mol]       5.86490015 [kJ/mol]
      Exch-Ind22                    0.24996470 [mEh]       0.15685522 [kcal/mol]       0.65628222 [kJ/mol]
      delta HF,r (2)                1.71273063 [mEh]       1.07475470 [kcal/mol]       4.49677365 [kJ/mol]

    Dispersion                     -1.52889917 [mEh]      -0.95939871 [kcal/mol]      -4.01412422 [kJ/mol]
      Disp20                       -1.75631054 [mEh]      -1.10210150 [kcal/mol]      -4.61119269 [kJ/mol]
      Disp21                        0.25900038 [mEh]       0.16252519 [kcal/mol]       0.68000542 [kJ/mol]
      Disp22 (SDQ)                 -0.00689378 [mEh]      -0.00432591 [kcal/mol]      -0.01809961 [kJ/mol]
      Disp22 (T)                   -0.31321805 [mEh]      -0.19654730 [kcal/mol]      -0.82235388 [kJ/mol]
      Est. Disp22 (T)              -0.35484273 [mEh]      -0.22266718 [kcal/mol]      -0.93163947 [kJ/mol]
      Exch-Disp20                   0.33014750 [mEh]       0.20717068 [kcal/mol]       0.86680214 [kJ/mol]

  Total HF                        106.68585278 [mEh]      66.94638334 [kcal/mol]     280.10366788 [kJ/mol]
  Total SAPT0                     105.25968973 [mEh]      66.05145252 [kcal/mol]     276.35927732 [kJ/mol]
  Total SAPT2                     104.54581206 [mEh]      65.60348751 [kcal/mol]     274.48499175 [kJ/mol]
  Total SAPT2+                    104.44307593 [mEh]      65.53901962 [kcal/mol]     274.21525808 [kJ/mol]

  Special recipe for scaled SAPT0 (see Manual):
    Electrostatics sSAPT0         110.48529458 [mEh]      69.33056906 [kcal/mol]     290.07910096 [kJ/mol]
    Exchange sSAPT0                 0.66899737 [mEh]       0.41980219 [kcal/mol]       1.75645235 [kJ/mol]
    Induction sSAPT0               -4.48002683 [mEh]      -2.81125928 [kcal/mol]     -11.76230882 [kJ/mol]
    Dispersion sSAPT0              -1.42787564 [mEh]      -0.89600549 [kcal/mol]      -3.74888697 [kJ/mol]
  Total sSAPT0                    105.24638949 [mEh]      66.04310648 [kcal/mol]     276.32435752 [kJ/mol]
  --------------------------------------------------------------------------------------------------------

*** Psi4 exiting successfully. Buy a developer a beer!
