                               Psi4 1.9 release

  ==> Input File <==

--------------------------------------------------------------------------
MEMORY 60 GB

molecule dimer {
-1 1
Br     0.000000     0.000000     0.000000
--
-1 1
Br     5.096000     0.000000     0.000000

units ang
no_reorient
no_com
symmetry c1
}

set {
basis        aug-cc-pVTZ
scf_type     df
}

energy("sapt2+")
--------------------------------------------------------------------------

  //              Dimer HF             //
    Molecular point group: c1
  Charge       = -2
  Multiplicity = 1
  Basis Set: AUG-CC-PVTZ
    Blend: AUG-CC-PVTZ
  Basis Set: (AUG-CC-PVTZ AUX)
    Blend: AUG-CC-PVTZ-JKFIT
  @DF-RHF Final Energy: -5144.96785952723167
    Total Energy =                      -5144.9678595272316670
 Dipole X            :       -346.6815961          337.0515517           -9.6300443
 Dipole Y            :         -0.0000000            0.0000000           -0.0000000
 Dipole Z            :         -0.0000000            0.0000000           -0.0000000
 Magnitude           :                                                    9.6300443
  //            Monomer A HF           //
    Molecular point group: c1
  Multiplicity = 1
  Basis Set: AUG-CC-PVTZ
    Blend: AUG-CC-PVTZ
  Basis Set: (AUG-CC-PVTZ AUX)
    Blend: AUG-CC-PVTZ-JKFIT
  @DF-RHF Final Energy: -2572.53366737374608
    Total Energy =                      -2572.5336673737460842
  //            Monomer B HF           //
    Molecular point group: c1

    Geometry (in Angstrom), charge = -1, multiplicity = 1:

       Center              X                  Y                   Z               Mass
    ------------   -----------------  -----------------  -----------------  -----------------
      Gh(BR)          0.000000000000     0.000000000000     0.000000000000    78.918337600000
         BR           5.096000000000     0.000000000000     0.000000000000    78.918337600000

  Charge       = -1
  Multiplicity = 1
  Basis Set: AUG-CC-PVTZ
    Blend: AUG-CC-PVTZ
  Basis Set: (AUG-CC-PVTZ AUX)
    Blend: AUG-CC-PVTZ-JKFIT

    Orbital Energies [Eh]
    ---------------------

    Doubly Occupied:

       1A   -489.720330     2A    -64.860430     3A    -58.214897
       4A    -58.214897     5A    -58.214896     6A     -9.532846
       7A     -7.140186     8A     -7.140186     9A     -7.140185
      10A     -2.881852    11A     -2.881852    12A     -2.881851
      13A     -2.881851    14A     -2.881847    15A     -0.686000
      16A     -0.139337    17A     -0.139337    18A     -0.139337

  @DF-RHF Final Energy: -2572.53366737365513

   => Energetics <=

    Nuclear Repulsion Energy =              0.0000000000000000
    One-Electron Energy =               -3593.6831000005981878
    Two-Electron Energy =                1021.1494326269425983
    Total Energy =                      -2572.5336673736555895
 Dipole X            :       -346.6816194          337.0515517           -9.6300677
 Dipole Y            :          0.0000000            0.0000000            0.0000000
 Dipole Z            :          0.0000000            0.0000000            0.0000000
 Magnitude           :                                                    9.6300677

    SAPT Results
  --------------------------------------------------------------------------------------------------------
    Electrostatics                102.52530789 [mEh]      64.33560200 [kcal/mol]     269.18015878 [kJ/mol]
      Elst10,r                    102.62019065 [mEh]      64.39514184 [kcal/mol]     269.42927344 [kJ/mol]
      Elst12,r                     -0.09488276 [mEh]      -0.05953983 [kcal/mol]      -0.24911466 [kJ/mol]

    Exchange                        0.28254673 [mEh]       0.17730075 [kcal/mol]       0.74182634 [kJ/mol]
      Exch10                        0.20499922 [mEh]       0.12863896 [kcal/mol]       0.53822539 [kJ/mol]
      Exch10(S^2)                   0.20539301 [mEh]       0.12888606 [kcal/mol]       0.53925927 [kJ/mol]
      Exch11(S^2)                   0.05511558 [mEh]       0.03458555 [kcal/mol]       0.14470594 [kJ/mol]
      Exch12(S^2)                   0.02243192 [mEh]       0.01407624 [kcal/mol]       0.05889500 [kJ/mol]

    Induction                      -3.83315597 [mEh]      -2.40534168 [kcal/mol]     -10.06394961 [kJ/mol]
      Ind20,r                      -5.58955016 [mEh]      -3.50749568 [kcal/mol]     -14.67536192 [kJ/mol]
      Ind22                        -0.57445496 [mEh]      -0.36047593 [kcal/mol]      -1.50823128 [kJ/mol]
      Exch-Ind20,r                  0.88806084 [mEh]       0.55726659 [kcal/mol]       2.33160341 [kJ/mol]
      Exch-Ind22                    0.09126870 [mEh]       0.05727197 [kcal/mol]       0.23962593 [kJ/mol]
      delta HF,r (2)                1.35151961 [mEh]       0.84809136 [kcal/mol]       3.54841426 [kJ/mol]

    Dispersion                     -0.92534155 [mEh]      -0.58066059 [kcal/mol]      -2.42948390 [kJ/mol]
      Disp20                       -1.01193053 [mEh]      -0.63499599 [kcal/mol]      -2.65682323 [kJ/mol]
      Disp21                        0.15522862 [mEh]       0.09740743 [kcal/mol]       0.40755269 [kJ/mol]
      Disp22 (SDQ)                 -0.00673764 [mEh]      -0.00422793 [kcal/mol]      -0.01768967 [kJ/mol]
      Disp22 (T)                   -0.17442556 [mEh]      -0.10945369 [kcal/mol]      -0.45795423 [kJ/mol]
      Est. Disp22 (T)              -0.20670500 [mEh]      -0.12970935 [kcal/mol]      -0.54270391 [kJ/mol]
      Exch-Disp20                   0.14480300 [mEh]       0.09086525 [kcal/mol]       0.38018022 [kJ/mol]

  Total HF                         99.47522017 [mEh]      62.42164306 [kcal/mol]     261.17215457 [kJ/mol]
  Total SAPT0                      98.60809264 [mEh]      61.87751232 [kcal/mol]     258.89551157 [kJ/mol]
  Total SAPT2                      98.10757112 [mEh]      61.56343033 [kcal/mol]     257.58139250 [kJ/mol]
  Total SAPT2+                     98.04935710 [mEh]      61.52690048 [kcal/mol]     257.42855161 [kJ/mol]

  Special recipe for scaled SAPT0 (see Manual):
    Electrostatics sSAPT0         102.62019065 [mEh]      64.39514184 [kcal/mol]     269.42927344 [kJ/mol]
    Exchange sSAPT0                 0.20499922 [mEh]       0.12863896 [kcal/mol]       0.53822539 [kJ/mol]
    Induction sSAPT0               -3.35506774 [mEh]      -2.10533679 [kcal/mol]      -8.80872914 [kJ/mol]
    Dispersion sSAPT0              -0.86795879 [mEh]      -0.54465236 [kcal/mol]      -2.27882548 [kJ/mol]
  Total sSAPT0                     98.60216335 [mEh]      61.87379164 [kcal/mol]     258.87994421 [kJ/mol]
  --------------------------------------------------------------------------------------------------------

*** Psi4 exiting successfully. Buy a developer a beer!
