                               Psi4 1.9 release

  ==> Input File <==

--------------------------------------------------------------------------
MEMORY 60 GB

molecule dimer {
-1 1
Br     0.000000     0.000000     0.000000
--
-1 1
Br     7.840000     0.000000     0.000000

units ang
no_reorient
no_com
symmetry c1
}

set {
basis        aug-cc-pVTZ
scf_type     df
}

energy("sapt2+")
--------------------------------------------------------------------------

  //              Dimer HF             //
    Molecular point group: c1
  Charge       = -2
  Multiplicity = 1
  Basis Set: AUG-CC-PVTZ
    Blend: AUG-CC-PVTZ
  Basis Set: (AUG-CC-PVTZ AUX)
    Blend: AUG-CC-PVTZ-JKFIT
  @DF-RHF Final Energy: -5145.00061226135767
    Total Energy =                      -5145.0006122613576736
 Dipole X            :       -533.3563016          518.5408488          -14.8154528
 Dipole Y            :          0.0000000            0.0000000            0.0000000
 Dipole Z            :          0.0000000            0.0000000            0.0000000
 Magnitude           :                                                   14.8154528
  //            Monomer A HF           //
    Molecular point group: c1
  Multiplicity = 1
  Basis Set: AUG-CC-PVTZ
    Blend: AUG-CC-PVTZ
  Basis Set: (AUG-CC-PVTZ AUX)
    Blend: AUG-CC-PVTZ-JKFIT
  @DF-RHF Final Energy: -2572.53366585223648
    Total Energy =                      -2572.5336658522364814
  //            Monomer B HF           //
    Molecular point group: c1

    Geometry (in Angstrom), charge = -1, multiplicity = 1:

       Center              X                  Y                   Z               Mass
    ------------   -----------------  -----------------  -----------------  -----------------
      Gh(BR)          0.000000000000     0.000000000000     0.000000000000    78.918337600000
         BR           7.840000000000     0.000000000000     0.000000000000    78.918337600000

  Charge       = -1
  Multiplicity = 1
  Basis Set: AUG-CC-PVTZ
    Blend: AUG-CC-PVTZ
  Basis Set: (AUG-CC-PVTZ AUX)
    Blend: AUG-CC-PVTZ-JKFIT

    Orbital Energies [Eh]
    ---------------------

    Doubly Occupied:

       1A   -489.720291     2A    -64.860402     3A    -58.214866
       4A    -58.214866     5A    -58.214866     6A     -9.532838
       7A     -7.140177     8A     -7.140177     9A     -7.140176
      10A     -2.881841    11A     -2.881841    12A     -2.881841
      13A     -2.881841    14A     -2.881841    15A     -0.686001
      16A     -0.139337    17A     -0.139337    18A     -0.139337

  @DF-RHF Final Energy: -2572.53366585243975

   => Energetics <=

    Nuclear Repulsion Energy =              0.0000000000000000
    One-Electron Energy =               -3593.6835771760047464
    Two-Electron Energy =                1021.1499113235649929
    Total Energy =                      -2572.5336658524397535
 Dipole X            :       -533.3563478          518.5408488          -14.8154990
 Dipole Y            :         -0.0000000            0.0000000           -0.0000000
 Dipole Z            :          0.0000000            0.0000000            0.0000000
 Magnitude           :                                                   14.8154990

    SAPT Results
  --------------------------------------------------------------------------------------------------------
    Electrostatics                 67.12127954 [mEh]      42.11923880 [kcal/mol]     176.22689514 [kJ/mol]
      Elst10,r                     67.11475088 [mEh]      42.11514201 [kcal/mol]     176.20975416 [kJ/mol]
      Elst12,r                      0.00652865 [mEh]       0.00409679 [kcal/mol]       0.01714098 [kJ/mol]

    Exchange                       -0.00065349 [mEh]      -0.00041007 [kcal/mol]      -0.00171574 [kJ/mol]
      Exch10                       -0.00052587 [mEh]      -0.00032999 [kcal/mol]      -0.00138066 [kJ/mol]
      Exch10(S^2)                  -0.00052585 [mEh]      -0.00032998 [kcal/mol]      -0.00138062 [kJ/mol]
      Exch11(S^2)                   0.00010147 [mEh]       0.00006367 [kcal/mol]       0.00026640 [kJ/mol]
      Exch12(S^2)                  -0.00022909 [mEh]      -0.00014376 [kcal/mol]      -0.00060148 [kJ/mol]

    Induction                      -0.45958080 [mEh]      -0.28839130 [kcal/mol]      -1.20662921 [kJ/mol]
      Ind20,r                      -0.81389383 [mEh]      -0.51072609 [kcal/mol]      -2.13687796 [kJ/mol]
      Ind22                        -0.06498448 [mEh]      -0.04077838 [kcal/mol]      -0.17061674 [kJ/mol]
      Exch-Ind20,r                  0.00232184 [mEh]       0.00145698 [kcal/mol]       0.00609599 [kJ/mol]
      Exch-Ind22                    0.00018538 [mEh]       0.00011633 [kcal/mol]       0.00048673 [kJ/mol]
      delta HF,r (2)                0.41679029 [mEh]       0.26153986 [kcal/mol]       1.09428276 [kJ/mol]

    Dispersion                     -0.05278326 [mEh]      -0.03312199 [kcal/mol]      -0.13858242 [kJ/mol]
      Disp20                       -0.05303526 [mEh]      -0.03328012 [kcal/mol]      -0.13924404 [kJ/mol]
      Disp21                        0.01124409 [mEh]       0.00705577 [kcal/mol]       0.02952136 [kJ/mol]
      Disp22 (SDQ)                 -0.00024235 [mEh]      -0.00015208 [kcal/mol]      -0.00063629 [kJ/mol]
      Disp22 (T)                   -0.01078417 [mEh]      -0.00676717 [kcal/mol]      -0.02831384 [kJ/mol]
      Est. Disp22 (T)              -0.01114517 [mEh]      -0.00699370 [kcal/mol]      -0.02926163 [kJ/mol]
      Exch-Disp20                   0.00039543 [mEh]       0.00024813 [kcal/mol]       0.00103819 [kJ/mol]

  Total HF                         66.71944332 [mEh]      41.86708277 [kcal/mol]     175.17187430 [kJ/mol]
  Total SAPT0                      66.66680349 [mEh]      41.83405078 [kcal/mol]     175.03366845 [kJ/mol]
  Total SAPT2                      66.60840542 [mEh]      41.79740543 [kcal/mol]     174.88034434 [kJ/mol]
  Total SAPT2+                     66.60826199 [mEh]      41.79731543 [kcal/mol]     174.87996777 [kJ/mol]

  Special recipe for scaled SAPT0 (see Manual):
    Electrostatics sSAPT0          67.11475088 [mEh]      42.11514201 [kcal/mol]     176.20975416 [kJ/mol]
    Exchange sSAPT0                -0.00052587 [mEh]      -0.00032999 [kcal/mol]      -0.00138066 [kJ/mol]
    Induction sSAPT0               -0.39478170 [mEh]      -0.24772926 [kcal/mol]      -1.03649920 [kJ/mol]
    Dispersion sSAPT0              -0.05263983 [mEh]      -0.03303199 [kcal/mol]      -0.13820585 [kJ/mol]
  Total sSAPT0                     66.66680349 [mEh]      41.83405078 [kcal/mol]     175.03366845 [kJ/mol]
  --------------------------------------------------------------------------------------------------------

*** Psi4 exiting successfully. Buy a developer a beer!
