                               Psi4 1.9 release

  ==> Input File <==

--------------------------------------------------------------------------
MEMORY 60 GB

molecule dimer {
-1 1
Br     0.000000     0.000000     0.000000
--
-1 1
Br     5.880000     0.000000     0.000000

units ang
no_reorient
no_com
symmetry c1
}

set {
basis        aug-cc-pVTZ
scf_type     df
}

energy("sapt2+")
--------------------------------------------------------------------------

  //              Dimer HF             //
    Molecular point group: c1
  Charge       = -2
  Multiplicity = 1
  Basis Set: AUG-CC-PVTZ
    Blend: AUG-CC-PVTZ
  Basis Set: (AUG-CC-PVTZ AUX)
    Blend: AUG-CC-PVTZ-JKFIT
  @DF-RHF Final Energy: -5144.97984662607269
    Total Energy =                      -5144.9798466260717760
 Dipole X            :       -400.0172262          388.9056366          -11.1115896
 Dipole Y            :         -0.0000000            0.0000000           -0.0000000
 Dipole Z            :         -0.0000000            0.0000000           -0.0000000
 Magnitude           :                                                   11.1115896
  //            Monomer A HF           //
    Molecular point group: c1
  Multiplicity = 1
  Basis Set: AUG-CC-PVTZ
    Blend: AUG-CC-PVTZ
  Basis Set: (AUG-CC-PVTZ AUX)
    Blend: AUG-CC-PVTZ-JKFIT
  @DF-RHF Final Energy: -2572.53366654999900
    Total Energy =                      -2572.5336665499989977
  //            Monomer B HF           //
    Molecular point group: c1

    Geometry (in Angstrom), charge = -1, multiplicity = 1:

       Center              X                  Y                   Z               Mass
    ------------   -----------------  -----------------  -----------------  -----------------
      Gh(BR)          0.000000000000     0.000000000000     0.000000000000    78.918337600000
         BR           5.880000000000     0.000000000000     0.000000000000    78.918337600000

  Charge       = -1
  Multiplicity = 1
  Basis Set: AUG-CC-PVTZ
    Blend: AUG-CC-PVTZ
  Basis Set: (AUG-CC-PVTZ AUX)
    Blend: AUG-CC-PVTZ-JKFIT

    Orbital Energies [Eh]
    ---------------------

    Doubly Occupied:

       1A   -489.720311     2A    -64.860415     3A    -58.214881
       4A    -58.214881     5A    -58.214880     6A     -9.532841
       7A     -7.140181     8A     -7.140181     9A     -7.140180
      10A     -2.881846    11A     -2.881846    12A     -2.881846
      13A     -2.881846    14A     -2.881844    15A     -0.686001
      16A     -0.139337    17A     -0.139337    18A     -0.139337

  @DF-RHF Final Energy: -2572.53366655007903

   => Energetics <=

    Nuclear Repulsion Energy =              0.0000000000000000
    One-Electron Energy =               -3593.6833509544403569
    Two-Electron Energy =                1021.1496844043610963
    Total Energy =                      -2572.5336665500790332
 Dipole X            :       -400.0172323          388.9056366          -11.1115957
 Dipole Y            :         -0.0000000            0.0000000           -0.0000000
 Dipole Z            :          0.0000000            0.0000000            0.0000000
 Magnitude           :                                                   11.1115957

    SAPT Results
  --------------------------------------------------------------------------------------------------------
    Electrostatics                 89.27937241 [mEh]      56.02365200 [kcal/mol]     234.40295997 [kJ/mol]
      Elst10,r                     89.28730559 [mEh]      56.02863015 [kcal/mol]     234.42378853 [kJ/mol]
      Elst12,r                     -0.00793318 [mEh]      -0.00497815 [kcal/mol]      -0.02082856 [kJ/mol]

    Exchange                        0.02178685 [mEh]       0.01367146 [kcal/mol]       0.05720137 [kJ/mol]
      Exch10                        0.01250525 [mEh]       0.00784716 [kcal/mol]       0.03283252 [kJ/mol]
      Exch10(S^2)                   0.01253259 [mEh]       0.00786432 [kcal/mol]       0.03290431 [kJ/mol]
      Exch11(S^2)                   0.00899633 [mEh]       0.00564528 [kcal/mol]       0.02361985 [kJ/mol]
      Exch12(S^2)                   0.00028528 [mEh]       0.00017901 [kcal/mol]       0.00074900 [kJ/mol]

    Induction                      -2.06024734 [mEh]      -1.29282472 [kcal/mol]      -5.40917864 [kJ/mol]
      Ind20,r                      -2.86373732 [mEh]      -1.79702230 [kcal/mol]      -7.51874130 [kJ/mol]
      Ind22                        -0.26050555 [mEh]      -0.16346970 [kcal/mol]      -0.68395724 [kJ/mol]
      Exch-Ind20,r                  0.14945035 [mEh]       0.09378151 [kcal/mol]       0.39238185 [kJ/mol]
      Exch-Ind22                    0.01359505 [mEh]       0.00853102 [kcal/mol]       0.03569379 [kJ/mol]
      delta HF,r (2)                0.90095014 [mEh]       0.56535475 [kcal/mol]       2.36544426 [kJ/mol]

    Dispersion                     -0.36055447 [mEh]      -0.22625134 [kcal/mol]      -0.94663563 [kJ/mol]
      Disp20                       -0.37017722 [mEh]      -0.23228971 [kcal/mol]      -0.97190017 [kJ/mol]
      Disp21                        0.06357946 [mEh]       0.03989671 [kcal/mol]       0.16692785 [kJ/mol]
      Disp22 (SDQ)                 -0.00335018 [mEh]      -0.00210227 [kcal/mol]      -0.00879588 [kJ/mol]
      Disp22 (T)                   -0.07042636 [mEh]      -0.04419321 [kcal/mol]      -0.18490439 [kJ/mol]
      Est. Disp22 (T)              -0.07771269 [mEh]      -0.04876545 [kcal/mol]      -0.20403465 [kJ/mol]
      Exch-Disp20                   0.02710616 [mEh]       0.01700937 [kcal/mol]       0.07116722 [kJ/mol]

  Total HF                         87.48647401 [mEh]      54.89859127 [kcal/mol]     229.69570586 [kJ/mol]
  Total SAPT0                      87.14340295 [mEh]      54.68331093 [kcal/mol]     228.79497291 [kJ/mol]
  Total SAPT2                      86.89784086 [mEh]      54.52921839 [kcal/mol]     228.15024976 [kJ/mol]
  Total SAPT2+                     86.88035746 [mEh]      54.51824739 [kcal/mol]     228.10434708 [kJ/mol]

  Special recipe for scaled SAPT0 (see Manual):
    Electrostatics sSAPT0          89.28730559 [mEh]      56.02863015 [kcal/mol]     234.42378853 [kJ/mol]
    Exchange sSAPT0                 0.01250525 [mEh]       0.00784716 [kcal/mol]       0.03283252 [kJ/mol]
    Induction sSAPT0               -1.81431295 [mEh]      -1.13849856 [kcal/mol]      -4.76347798 [kJ/mol]
    Dispersion sSAPT0              -0.34324810 [mEh]      -0.21539143 [kcal/mol]      -0.90119776 [kJ/mol]
  Total sSAPT0                     87.14224979 [mEh]      54.68258731 [kcal/mol]     228.79194531 [kJ/mol]
  --------------------------------------------------------------------------------------------------------

*** Psi4 exiting successfully. Buy a developer a beer!
