                               Psi4 1.9 release

  ==> Input File <==

--------------------------------------------------------------------------
MEMORY 60 GB

molecule dimer {
-1 1
Br     0.000000     0.000000     0.000000
--
-1 1
Br     4.312000     0.000000     0.000000

units ang
no_reorient
no_com
symmetry c1
}

set {
basis        aug-cc-pVTZ
scf_type     df
}

energy("sapt2+")
--------------------------------------------------------------------------

  //              Dimer HF             //
    Molecular point group: c1
  Charge       = -2
  Multiplicity = 1
  Basis Set: AUG-CC-PVTZ
    Blend: AUG-CC-PVTZ
  Basis Set: (AUG-CC-PVTZ AUX)
    Blend: AUG-CC-PVTZ-JKFIT
  @DF-RHF Final Energy: -5144.95225602101891
    Total Energy =                      -5144.9522560210189113
 Dipole X            :       -293.3459659          285.1974669           -8.1484991
 Dipole Y            :          0.0000000            0.0000000            0.0000000
 Dipole Z            :          0.0000000            0.0000000            0.0000000
 Magnitude           :                                                    8.1484991
  //            Monomer A HF           //
    Molecular point group: c1
  Multiplicity = 1
  Basis Set: AUG-CC-PVTZ
    Blend: AUG-CC-PVTZ
  Basis Set: (AUG-CC-PVTZ AUX)
    Blend: AUG-CC-PVTZ-JKFIT
  @DF-RHF Final Energy: -2572.53366945245034
    Total Energy =                      -2572.5336694524503400
  //            Monomer B HF           //
    Molecular point group: c1

    Geometry (in Angstrom), charge = -1, multiplicity = 1:

       Center              X                  Y                   Z               Mass
    ------------   -----------------  -----------------  -----------------  -----------------
      Gh(BR)          0.000000000000     0.000000000000     0.000000000000    78.918337600000
         BR           4.312000000000     0.000000000000     0.000000000000    78.918337600000

  Charge       = -1
  Multiplicity = 1
  Basis Set: AUG-CC-PVTZ
    Blend: AUG-CC-PVTZ
  Basis Set: (AUG-CC-PVTZ AUX)
    Blend: AUG-CC-PVTZ-JKFIT

    Orbital Energies [Eh]
    ---------------------

    Doubly Occupied:

       1A   -489.720381     2A    -64.860468     3A    -58.214937
       4A    -58.214937     5A    -58.214936     6A     -9.532858
       7A     -7.140199     8A     -7.140199     9A     -7.140195
      10A     -2.881865    11A     -2.881865    12A     -2.881865
      13A     -2.881865    14A     -2.881858    15A     -0.685999
      16A     -0.139338    17A     -0.139336    18A     -0.139336

  @DF-RHF Final Energy: -2572.53366945265043

   => Energetics <=

    Nuclear Repulsion Energy =              0.0000000000000000
    One-Electron Energy =               -3593.6824692501245408
    Two-Electron Energy =                1021.1487997974738846
    Total Energy =                      -2572.5336694526504289
 Dipole X            :       -293.3461547          285.1974669           -8.1486878
 Dipole Y            :         -0.0000000            0.0000000           -0.0000000
 Dipole Z            :         -0.0000000            0.0000000           -0.0000000
 Magnitude           :                                                    8.1486878

    SAPT Results
  --------------------------------------------------------------------------------------------------------
    Electrostatics                118.54411513 [mEh]      74.38755530 [kcal/mol]     311.23753139 [kJ/mol]
      Elst10,r                    119.04288825 [mEh]      74.70054016 [kcal/mol]     312.54706004 [kJ/mol]
      Elst12,r                     -0.49877312 [mEh]      -0.31298486 [kcal/mol]      -1.30952864 [kJ/mol]

    Exchange                        2.58595371 [mEh]       1.62271045 [kcal/mol]       6.78942052 [kJ/mol]
      Exch10                        2.07200653 [mEh]       1.30020373 [kcal/mol]       5.44005239 [kJ/mol]
      Exch10(S^2)                   2.07336882 [mEh]       1.30105858 [kcal/mol]       5.44362908 [kJ/mol]
      Exch11(S^2)                   0.32803599 [mEh]       0.20584569 [kcal/mol]       0.86125838 [kJ/mol]
      Exch12(S^2)                   0.18591119 [mEh]       0.11666103 [kcal/mol]       0.48810976 [kJ/mol]

    Induction                      -7.00850621 [mEh]      -4.39790404 [kcal/mol]     -18.40083051 [kJ/mol]
      Ind20,r                     -13.87614180 [mEh]      -8.70741044 [kcal/mol]     -36.43180527 [kJ/mol]
      Ind22                        -1.68269601 [mEh]      -1.05590769 [kcal/mol]      -4.41791777 [kJ/mol]
      Exch-Ind20,r                  5.82359391 [mEh]       3.65436035 [kcal/mol]      15.28984371 [kJ/mol]
      Exch-Ind22                    0.70620050 [mEh]       0.44314750 [kcal/mol]       1.85412915 [kJ/mol]
      delta HF,r (2)                2.02053719 [mEh]       1.26790623 [kcal/mol]       5.30491966 [kJ/mol]

    Dispersion                     -2.54890824 [mEh]      -1.59946407 [kcal/mol]      -6.69215767 [kJ/mol]
      Disp20                       -3.13367963 [mEh]      -1.96641366 [kcal/mol]      -8.22747474 [kJ/mol]
      Disp21                        0.45527929 [mEh]       0.28569207 [kcal/mol]       1.19533560 [kJ/mol]
      Disp22 (SDQ)                 -0.00023245 [mEh]      -0.00014586 [kcal/mol]      -0.00061029 [kJ/mol]
      Disp22 (T)                   -0.53530895 [mEh]      -0.33591144 [kcal/mol]      -1.40545347 [kJ/mol]
      Est. Disp22 (T)              -0.61457535 [mEh]      -0.38565185 [kcal/mol]      -1.61356736 [kJ/mol]
      Exch-Disp20                   0.74429990 [mEh]       0.46705524 [kcal/mol]       1.95415912 [kJ/mol]

  Total HF                        115.08288408 [mEh]      72.21560003 [kcal/mol]     302.15007053 [kJ/mol]
  Total SAPT0                     112.69350435 [mEh]      70.71624161 [kcal/mol]     295.87675491 [kJ/mol]
  Total SAPT2                     111.73218290 [mEh]      70.11300329 [kcal/mol]     293.35280578 [kJ/mol]
  Total SAPT2+                    111.57265439 [mEh]      70.01289764 [kcal/mol]     292.93396373 [kJ/mol]

  Special recipe for scaled SAPT0 (see Manual):
    Electrostatics sSAPT0         119.04288825 [mEh]      74.70054016 [kcal/mol]     312.54706004 [kJ/mol]
    Exchange sSAPT0                 2.07200653 [mEh]       1.30020373 [kcal/mol]       5.44005239 [kJ/mol]
    Induction sSAPT0               -6.04348220 [mEh]      -3.79234234 [kcal/mol]     -15.86716033 [kJ/mol]
    Dispersion sSAPT0              -2.39084588 [mEh]      -1.50027844 [kcal/mol]      -6.27716499 [kJ/mol]
  Total sSAPT0                    112.68056670 [mEh]      70.70812311 [kcal/mol]     295.84278710 [kJ/mol]
  --------------------------------------------------------------------------------------------------------

*** Psi4 exiting successfully. Buy a developer a beer!
