                               Psi4 1.9 release

  ==> Input File <==

--------------------------------------------------------------------------
MEMORY 60 GB

molecule dimer {
-1 1
Br     0.000000     0.000000     0.000000
--
-1 1
Br     5.488000     0.000000     0.000000

units ang
no_reorient
no_com
symmetry c1
}

set {
basis        aug-cc-pVTZ
scf_type     df
}

energy("sapt2+")
--------------------------------------------------------------------------

  //              Dimer HF             //
    Molecular point group: c1
  Charge       = -2
  Multiplicity = 1
  Basis Set: AUG-CC-PVTZ
    Blend: AUG-CC-PVTZ
  Basis Set: (AUG-CC-PVTZ AUX)
    Blend: AUG-CC-PVTZ-JKFIT
  @DF-RHF Final Energy: -5144.97420271993724
    Total Energy =                      -5144.9742027199363292
 Dipole X            :       -373.3494112          362.9785942          -10.3708170
 Dipole Y            :         -0.0000000            0.0000000           -0.0000000
 Dipole Z            :          0.0000000            0.0000000            0.0000000
 Magnitude           :                                                   10.3708170
  //            Monomer A HF           //
    Molecular point group: c1
  Multiplicity = 1
  Basis Set: AUG-CC-PVTZ
    Blend: AUG-CC-PVTZ
  Basis Set: (AUG-CC-PVTZ AUX)
    Blend: AUG-CC-PVTZ-JKFIT
  @DF-RHF Final Energy: -2572.53366694624447
    Total Energy =                      -2572.5336669462444661
  //            Monomer B HF           //
    Molecular point group: c1

    Geometry (in Angstrom), charge = -1, multiplicity = 1:

       Center              X                  Y                   Z               Mass
    ------------   -----------------  -----------------  -----------------  -----------------
      Gh(BR)          0.000000000000     0.000000000000     0.000000000000    78.918337600000
         BR           5.488000000000     0.000000000000     0.000000000000    78.918337600000

  Charge       = -1
  Multiplicity = 1
  Basis Set: AUG-CC-PVTZ
    Blend: AUG-CC-PVTZ
  Basis Set: (AUG-CC-PVTZ AUX)
    Blend: AUG-CC-PVTZ-JKFIT

    Orbital Energies [Eh]
    ---------------------

    Doubly Occupied:

       1A   -489.720318     2A    -64.860420     3A    -58.214886
       4A    -58.214886     5A    -58.214886     6A     -9.532842
       7A     -7.140182     8A     -7.140182     9A     -7.140181
      10A     -2.881848    11A     -2.881848    12A     -2.881847
      13A     -2.881847    14A     -2.881845    15A     -0.686000
      16A     -0.139337    17A     -0.139336    18A     -0.139336

  @DF-RHF Final Energy: -2572.53366694631586

   => Energetics <=

    Nuclear Repulsion Energy =              0.0000000000000000
    One-Electron Energy =               -3593.6832724674918609
    Two-Electron Energy =                1021.1496055211759995
    Total Energy =                      -2572.5336669463158614
 Dipole X            :       -373.3493681          362.9785942          -10.3707739
 Dipole Y            :          0.0000000            0.0000000            0.0000000
 Dipole Z            :         -0.0000000            0.0000000           -0.0000000
 Magnitude           :                                                   10.3707739

    SAPT Results
  --------------------------------------------------------------------------------------------------------
    Electrostatics                 95.52899124 [mEh]      59.94534703 [kcal/mol]     250.81133196 [kJ/mol]
      Elst10,r                     95.56340421 [mEh]      59.96694149 [kcal/mol]     250.90168318 [kJ/mol]
      Elst12,r                     -0.03441296 [mEh]      -0.02159446 [kcal/mol]      -0.09035122 [kJ/mol]

    Exchange                        0.08476291 [mEh]       0.05318953 [kcal/mol]       0.22254500 [kJ/mol]
      Exch10                        0.05690488 [mEh]       0.03570835 [kcal/mol]       0.14940373 [kJ/mol]
      Exch10(S^2)                   0.05701355 [mEh]       0.03577654 [kcal/mol]       0.14968904 [kJ/mol]
      Exch11(S^2)                   0.02229639 [mEh]       0.01399120 [kcal/mol]       0.05853917 [kJ/mol]
      Exch12(S^2)                   0.00556164 [mEh]       0.00348998 [kcal/mol]       0.01460210 [kJ/mol]

    Induction                      -2.83089114 [mEh]      -1.77641101 [kcal/mol]      -7.43250367 [kJ/mol]
      Ind20,r                      -3.92747331 [mEh]      -2.46452671 [kcal/mol]     -10.31157975 [kJ/mol]
      Ind22                        -0.37640066 [mEh]      -0.23619498 [kcal/mol]      -0.98823980 [kJ/mol]
      Exch-Ind20,r                  0.36150621 [mEh]       0.22684857 [kcal/mol]       0.94913442 [kJ/mol]
      Exch-Ind22                    0.03464598 [mEh]       0.02174068 [kcal/mol]       0.09096302 [kJ/mol]
      delta HF,r (2)                1.07683064 [mEh]       0.67572143 [kcal/mol]       2.82721845 [kJ/mol]

    Dispersion                     -0.57128193 [mEh]      -0.35848482 [kcal/mol]      -1.49990050 [kJ/mol]
      Disp20                       -0.60153234 [mEh]      -0.37746724 [kcal/mol]      -1.57932293 [kJ/mol]
      Disp21                        0.09743180 [mEh]       0.06113938 [kcal/mol]       0.25580715 [kJ/mol]
      Disp22 (SDQ)                 -0.00506321 [mEh]      -0.00317721 [kcal/mol]      -0.01329346 [kJ/mol]
      Disp22 (T)                   -0.10960127 [mEh]      -0.06877583 [kcal/mol]      -0.28775809 [kJ/mol]
      Est. Disp22 (T)              -0.12500397 [mEh]      -0.07844117 [kcal/mol]      -0.32819787 [kJ/mol]
      Exch-Disp20                   0.06288579 [mEh]       0.03946143 [kcal/mol]       0.16510661 [kJ/mol]

  Total HF                         93.13117262 [mEh]      58.44069312 [kcal/mol]     244.51586003 [kJ/mol]
  Total SAPT0                      92.59252607 [mEh]      58.10268731 [kcal/mol]     243.10164371 [kJ/mol]
  Total SAPT2                      92.24421647 [mEh]      57.88411973 [kcal/mol]     242.18715696 [kJ/mol]
  Total SAPT2+                     92.21158109 [mEh]      57.86364072 [kcal/mol]     242.10147279 [kJ/mol]

  Special recipe for scaled SAPT0 (see Manual):
    Electrostatics sSAPT0          95.56340421 [mEh]      59.96694149 [kcal/mol]     250.90168318 [kJ/mol]
    Exchange sSAPT0                 0.05690488 [mEh]       0.03570835 [kcal/mol]       0.14940373 [kJ/mol]
    Induction sSAPT0               -2.49119963 [mEh]      -1.56325137 [kcal/mol]      -6.54064373 [kJ/mol]
    Dispersion sSAPT0              -0.53900545 [mEh]      -0.33823103 [kcal/mol]      -1.41515861 [kJ/mol]
  Total sSAPT0                     92.59010401 [mEh]      58.10116744 [kcal/mol]     243.09528458 [kJ/mol]
  --------------------------------------------------------------------------------------------------------

*** Psi4 exiting successfully. Buy a developer a beer!
