                               Psi4 1.9 release

  ==> Input File <==

--------------------------------------------------------------------------
MEMORY 60 GB

molecule dimer {
-1 1
Br     0.000000     0.000000     0.000000
--
-1 1
Br     3.920000     0.000000     0.000000

units ang
no_reorient
no_com
symmetry c1
}

set {
basis        aug-cc-pVTZ
scf_type     df
}

energy("sapt2+")
--------------------------------------------------------------------------

  //              Dimer HF             //
    Molecular point group: c1
  Charge       = -2
  Multiplicity = 1
  Basis Set: AUG-CC-PVTZ
    Blend: AUG-CC-PVTZ
  Basis Set: (AUG-CC-PVTZ AUX)
    Blend: AUG-CC-PVTZ-JKFIT
  @DF-RHF Final Energy: -5144.94195241691887
    Total Energy =                      -5144.9419524169188662
 Dipole X            :       -266.6781508          259.2704244           -7.4077264
 Dipole Y            :         -0.0000000            0.0000000           -0.0000000
 Dipole Z            :          0.0000000            0.0000000            0.0000000
 Magnitude           :                                                    7.4077264
  //            Monomer A HF           //
    Molecular point group: c1
  Multiplicity = 1
  Basis Set: AUG-CC-PVTZ
    Blend: AUG-CC-PVTZ
  Basis Set: (AUG-CC-PVTZ AUX)
    Blend: AUG-CC-PVTZ-JKFIT
  @DF-RHF Final Energy: -2572.53367054728642
    Total Energy =                      -2572.5336705472864196
  //            Monomer B HF           //
    Molecular point group: c1

    Geometry (in Angstrom), charge = -1, multiplicity = 1:

       Center              X                  Y                   Z               Mass
    ------------   -----------------  -----------------  -----------------  -----------------
      Gh(BR)          0.000000000000     0.000000000000     0.000000000000    78.918337600000
         BR           3.920000000000     0.000000000000     0.000000000000    78.918337600000

  Charge       = -1
  Multiplicity = 1
  Basis Set: AUG-CC-PVTZ
    Blend: AUG-CC-PVTZ
  Basis Set: (AUG-CC-PVTZ AUX)
    Blend: AUG-CC-PVTZ-JKFIT

    Orbital Energies [Eh]
    ---------------------

    Doubly Occupied:

       1A   -489.720418     2A    -64.860493     3A    -58.214963
       4A    -58.214963     5A    -58.214962     6A     -9.532865
       7A     -7.140206     8A     -7.140206     9A     -7.140201
      10A     -2.881873    11A     -2.881873    12A     -2.881872
      13A     -2.881872    14A     -2.881866    15A     -0.685999
      16A     -0.139338    17A     -0.139335    18A     -0.139335

  @DF-RHF Final Energy: -2572.53367054742648

   => Energetics <=

    Nuclear Repulsion Energy =              0.0000000000000000
    One-Electron Energy =               -3593.6820516282364224
    Two-Electron Energy =                1021.1483810808099406
    Total Energy =                      -2572.5336705474264818
 Dipole X            :       -266.6782985          259.2704244           -7.4078741
 Dipole Y            :         -0.0000000            0.0000000           -0.0000000
 Dipole Z            :         -0.0000000            0.0000000           -0.0000000
 Magnitude           :                                                    7.4078741

    SAPT Results
  --------------------------------------------------------------------------------------------------------
    Electrostatics                126.26358971 [mEh]      79.23159874 [kcal/mol]     331.50500911 [kJ/mol]
      Elst10,r                    127.30710039 [mEh]      79.88641157 [kcal/mol]     334.24474602 [kJ/mol]
      Elst12,r                     -1.04351068 [mEh]      -0.65481284 [kcal/mol]      -2.73973691 [kJ/mol]

    Exchange                        7.44546733 [mEh]       4.67210129 [kcal/mol]      19.54807179 [kJ/mol]
      Exch10                        6.21685202 [mEh]       3.90113354 [kcal/mol]      16.32234273 [kJ/mol]
      Exch10(S^2)                   6.19912328 [mEh]       3.89000859 [kcal/mol]      16.27579593 [kJ/mol]
      Exch11(S^2)                   0.77247853 [mEh]       0.48473760 [kcal/mol]       2.02814210 [kJ/mol]
      Exch12(S^2)                   0.45613678 [mEh]       0.28623015 [kcal/mol]       1.19758696 [kJ/mol]

    Induction                      -9.44857353 [mEh]      -5.92906940 [kcal/mol]     -24.80722638 [kJ/mol]
      Ind20,r                     -26.20700644 [mEh]     -16.44514482 [kcal/mol]     -68.80648592 [kJ/mol]
      Ind22                        -3.30858117 [mEh]      -2.07616603 [kcal/mol]      -8.68667867 [kJ/mol]
      Exch-Ind20,r                 15.80447093 [mEh]       9.91745524 [kcal/mol]      41.49463271 [kJ/mol]
      Exch-Ind22                    1.99528226 [mEh]       1.25205852 [kcal/mol]       5.23861284 [kJ/mol]
      delta HF,r (2)                2.26726089 [mEh]       1.42272769 [kcal/mol]       5.95269265 [kJ/mol]

    Dispersion                     -4.28355481 [mEh]      -2.68797122 [kcal/mol]     -11.24647160 [kJ/mol]
      Disp20                       -5.73295619 [mEh]      -3.59748432 [kcal/mol]     -15.05187441 [kJ/mol]
      Disp21                        0.84439474 [mEh]       0.52986570 [kcal/mol]       2.21695810 [kJ/mol]
      Disp22 (SDQ)                  0.02529796 [mEh]       0.01587471 [kcal/mol]       0.06641980 [kJ/mol]
      Disp22 (T)                   -0.91790693 [mEh]      -0.57599529 [kcal/mol]      -2.40996431 [kJ/mol]
      Est. Disp22 (T)              -1.07570326 [mEh]      -0.67501399 [kcal/mol]      -2.82425852 [kJ/mol]
      Exch-Disp20                   1.65541194 [mEh]       1.03878667 [kcal/mol]       4.34628344 [kJ/mol]

  Total HF                        125.38867779 [mEh]      78.68258322 [kcal/mol]     329.20792819 [kJ/mol]
  Total SAPT0                     121.31113354 [mEh]      76.12388557 [kcal/mol]     318.50233722 [kJ/mol]
  Total SAPT2                     120.18293926 [mEh]      75.41593297 [kcal/mol]     315.54026355 [kJ/mol]
  Total SAPT2+                    119.97692871 [mEh]      75.28665940 [kcal/mol]     314.99938292 [kJ/mol]

  Special recipe for scaled SAPT0 (see Manual):
    Electrostatics sSAPT0         127.30710039 [mEh]      79.88641157 [kcal/mol]     334.24474602 [kJ/mol]
    Exchange sSAPT0                 6.21685202 [mEh]       3.90113354 [kcal/mol]      16.32234273 [kJ/mol]
    Induction sSAPT0               -7.99928984 [mEh]      -5.01963016 [kcal/mol]     -21.00213259 [kJ/mol]
    Dispersion sSAPT0              -4.06330077 [mEh]      -2.54975973 [kcal/mol]     -10.66819469 [kJ/mol]
  Total sSAPT0                    121.46136180 [mEh]      76.21815523 [kcal/mol]     318.89676147 [kJ/mol]
  --------------------------------------------------------------------------------------------------------

*** Psi4 exiting successfully. Buy a developer a beer!
