                               Psi4 1.9 release

  ==> Input File <==

--------------------------------------------------------------------------
MEMORY 60 GB

molecule dimer {
0 1
O      0.000000     0.000000     0.000000
H      0.588538     0.756918     0.000000
H      0.588538    -0.756918     0.000000
--
1 1
Li     4.320000     0.000000     0.000000

units ang
no_reorient
no_com
symmetry c1
}

set {
basis        aug-cc-pVTZ
scf_type     df
}

energy("sapt2+")
--------------------------------------------------------------------------

  //              Dimer HF             //
    Molecular point group: c1
  Charge       = 1
  Multiplicity = 1
  Basis Set: AUG-CC-PVTZ
    Blend: AUG-CC-PVTZ
  Basis Set: (AUG-CC-PVTZ AUX)
    Blend: AUG-CC-PVTZ-JKFIT + DEF2-UNIVERSAL-JKFIT
  @DF-RHF Final Energy:   -83.28672528611311
    Total Energy =                        -83.2867252861131107
 Dipole X            :        -17.9104059           26.7152019            8.8047960
 Dipole Y            :         -0.0000000            0.0000000           -0.0000000
 Dipole Z            :          0.0000000            0.0000000            0.0000000
 Magnitude           :                                                    8.8047960
  //            Monomer A HF           //
    Molecular point group: c1
  Multiplicity = 1
  Basis Set: AUG-CC-PVTZ
    Blend: AUG-CC-PVTZ
  Basis Set: (AUG-CC-PVTZ AUX)
    Blend: AUG-CC-PVTZ-JKFIT + DEF2-UNIVERSAL-JKFIT
  @DF-RHF Final Energy:   -76.06049042476963
    Total Energy =                        -76.0604904247696254
  //            Monomer B HF           //
    Molecular point group: c1

    Geometry (in Angstrom), charge = 1, multiplicity = 1:

       Center              X                  Y                   Z               Mass
    ------------   -----------------  -----------------  -----------------  -----------------
      Gh(O)           0.000000000000     0.000000000000     0.000000000000    15.994914619570
      Gh(H)           0.588538000000     0.756918000000     0.000000000000     1.007825032230
      Gh(H)           0.588538000000    -0.756918000000     0.000000000000     1.007825032230
         LI           4.320000000000     0.000000000000     0.000000000000     7.016003436600

  Charge       = 1
  Multiplicity = 1
  Basis Set: AUG-CC-PVTZ
    Blend: AUG-CC-PVTZ
  Basis Set: (AUG-CC-PVTZ AUX)
    Blend: AUG-CC-PVTZ-JKFIT + DEF2-UNIVERSAL-JKFIT

    Orbital Energies [Eh]
    ---------------------

    Doubly Occupied:

       1A     -2.792362

  @DF-RHF Final Energy:    -7.23638260745794

   => Energetics <=

    Nuclear Repulsion Energy =              0.0000000000000000
    One-Electron Energy =                  -8.8880416066038777
    Two-Electron Energy =                   1.6516589991459407
    Total Energy =                         -7.2363826074579372
 Dipole X            :        -16.3272791           24.4908506            8.1635715
 Dipole Y            :         -0.0000000            0.0000000           -0.0000000
 Dipole Z            :         -0.0000000            0.0000000           -0.0000000
 Magnitude           :                                                    8.1635715

    SAPT Results
  --------------------------------------------------------------------------------------------------------
    Electrostatics                 10.58291078 [mEh]       6.64087678 [kcal/mol]      27.78542843 [kJ/mol]
      Elst10,r                     11.34883048 [mEh]       7.12149864 [kcal/mol]      29.79635033 [kJ/mol]
      Elst12,r                     -0.76591970 [mEh]      -0.48062187 [kcal/mol]      -2.01092190 [kJ/mol]

    Exchange                        0.00283839 [mEh]       0.00178112 [kcal/mol]       0.00745219 [kJ/mol]
      Exch10                        0.00187496 [mEh]       0.00117656 [kcal/mol]       0.00492271 [kJ/mol]
      Exch10(S^2)                   0.00187496 [mEh]       0.00117656 [kcal/mol]       0.00492271 [kJ/mol]
      Exch11(S^2)                  -0.00000898 [mEh]      -0.00000563 [kcal/mol]      -0.00002357 [kJ/mol]
      Exch12(S^2)                   0.00097240 [mEh]       0.00061019 [kcal/mol]       0.00255305 [kJ/mol]

    Induction                      -1.35030435 [mEh]      -0.84732877 [kcal/mol]      -3.54522357 [kJ/mol]
      Ind20,r                      -1.14788542 [mEh]      -0.72030897 [kcal/mol]      -3.01377274 [kJ/mol]
      Ind22                        -0.14768191 [mEh]      -0.09267180 [kcal/mol]      -0.38773880 [kJ/mol]
      Exch-Ind20,r                  0.00261857 [mEh]       0.00164318 [kcal/mol]       0.00687506 [kJ/mol]
      Exch-Ind22                    0.00033689 [mEh]       0.00021140 [kcal/mol]       0.00088452 [kJ/mol]
      delta HF,r (2)               -0.05769249 [mEh]      -0.03620258 [kcal/mol]      -0.15147160 [kJ/mol]

    Dispersion                     -0.00537339 [mEh]      -0.00337185 [kcal/mol]      -0.01410784 [kJ/mol]
      Disp20                       -0.00458883 [mEh]      -0.00287953 [kcal/mol]      -0.01204797 [kJ/mol]
      Disp21                       -0.00018990 [mEh]      -0.00011916 [kcal/mol]      -0.00049858 [kJ/mol]
      Disp22 (SDQ)                 -0.00020595 [mEh]      -0.00012924 [kcal/mol]      -0.00054072 [kJ/mol]
      Disp22 (T)                   -0.00038352 [mEh]      -0.00024067 [kcal/mol]      -0.00100694 [kJ/mol]
      Est. Disp22 (T)              -0.00041865 [mEh]      -0.00026271 [kcal/mol]      -0.00109916 [kJ/mol]
      Exch-Disp20                   0.00002993 [mEh]       0.00001878 [kcal/mol]       0.00007858 [kJ/mol]

  Total HF                         10.14774611 [mEh]       6.36780682 [kcal/mol]      26.64290375 [kJ/mol]
  Total SAPT0                      10.14318722 [mEh]       6.36494607 [kcal/mol]      26.63093437 [kJ/mol]
  Total SAPT2                       9.23088593 [mEh]       5.79246837 [kcal/mol]      24.23568766 [kJ/mol]
  Total SAPT2+                      9.23007143 [mEh]       5.79195727 [kcal/mol]      24.23354921 [kJ/mol]

  Special recipe for scaled SAPT0 (see Manual):
    Electrostatics sSAPT0          11.34883048 [mEh]       7.12149864 [kcal/mol]      29.79635033 [kJ/mol]
    Exchange sSAPT0                 0.00187496 [mEh]       0.00117656 [kcal/mol]       0.00492271 [kJ/mol]
    Induction sSAPT0               -1.20295933 [mEh]      -0.75486838 [kcal/mol]      -3.15836929 [kJ/mol]
    Dispersion sSAPT0              -0.00455890 [mEh]      -0.00286075 [kcal/mol]      -0.01196938 [kJ/mol]
  Total sSAPT0                     10.14318722 [mEh]       6.36494607 [kcal/mol]      26.63093437 [kJ/mol]
  --------------------------------------------------------------------------------------------------------

*** Psi4 exiting successfully. Buy a developer a beer!
