                               Psi4 1.9 release

  ==> Input File <==

--------------------------------------------------------------------------
MEMORY 60 GB

molecule dimer {
0 1
O      0.000000     0.000000     0.000000
H      0.588538     0.756918     0.000000
H      0.588538    -0.756918     0.000000
--
1 1
Li     2.592000     0.000000     0.000000

units ang
no_reorient
no_com
symmetry c1
}

set {
basis        aug-cc-pVTZ
scf_type     df
}

energy("sapt2+")
--------------------------------------------------------------------------

  //              Dimer HF             //
    Molecular point group: c1
  Charge       = 1
  Multiplicity = 1
  Basis Set: AUG-CC-PVTZ
    Blend: AUG-CC-PVTZ
  Basis Set: (AUG-CC-PVTZ AUX)
    Blend: AUG-CC-PVTZ-JKFIT + DEF2-UNIVERSAL-JKFIT
  @DF-RHF Final Energy:   -83.27656327224996
    Total Energy =                        -83.2765632722499731
 Dipole X            :        -11.6239919           16.9188616            5.2948697
 Dipole Y            :         -0.0000000            0.0000000           -0.0000000
 Dipole Z            :         -0.0000000            0.0000000           -0.0000000
 Magnitude           :                                                    5.2948697
  //            Monomer A HF           //
    Molecular point group: c1
  Multiplicity = 1
  Basis Set: AUG-CC-PVTZ
    Blend: AUG-CC-PVTZ
  Basis Set: (AUG-CC-PVTZ AUX)
    Blend: AUG-CC-PVTZ-JKFIT + DEF2-UNIVERSAL-JKFIT
  @DF-RHF Final Energy:   -76.06051849282809
    Total Energy =                        -76.0605184928280948
  //            Monomer B HF           //
    Molecular point group: c1

    Geometry (in Angstrom), charge = 1, multiplicity = 1:

       Center              X                  Y                   Z               Mass
    ------------   -----------------  -----------------  -----------------  -----------------
      Gh(O)           0.000000000000     0.000000000000     0.000000000000    15.994914619570
      Gh(H)           0.588538000000     0.756918000000     0.000000000000     1.007825032230
      Gh(H)           0.588538000000    -0.756918000000     0.000000000000     1.007825032230
         LI           2.592000000000     0.000000000000     0.000000000000     7.016003436600

  Charge       = 1
  Multiplicity = 1
  Basis Set: AUG-CC-PVTZ
    Blend: AUG-CC-PVTZ
  Basis Set: (AUG-CC-PVTZ AUX)
    Blend: AUG-CC-PVTZ-JKFIT + DEF2-UNIVERSAL-JKFIT

    Orbital Energies [Eh]
    ---------------------

    Doubly Occupied:

       1A     -2.792372

  @DF-RHF Final Energy:    -7.23638333674286

   => Energetics <=

    Nuclear Repulsion Energy =              0.0000000000000000
    One-Electron Energy =                  -8.8880232100044783
    Two-Electron Energy =                   1.6516398732616151
    Total Energy =                         -7.2363833367428629
 Dipole X            :         -9.7964029           14.6945104            4.8981074
 Dipole Y            :          0.0000000            0.0000000            0.0000000
 Dipole Z            :          0.0000000            0.0000000            0.0000000
 Magnitude           :                                                    4.8981074

    SAPT Results
  --------------------------------------------------------------------------------------------------------
    Electrostatics                 26.30277043 [mEh]      16.50523763 [kcal/mol]      69.05791425 [kJ/mol]
      Elst10,r                     28.33032605 [mEh]      17.77754799 [kcal/mol]      74.38126080 [kJ/mol]
      Elst12,r                     -2.02755562 [mEh]      -1.27231036 [kcal/mol]      -5.32334655 [kJ/mol]

    Exchange                        2.31454297 [mEh]       1.45239764 [kcal/mol]       6.07683173 [kJ/mol]
      Exch10                        1.86918892 [mEh]       1.17293376 [kcal/mol]       4.90755483 [kJ/mol]
      Exch10(S^2)                   1.86824648 [mEh]       1.17234237 [kcal/mol]       4.90508046 [kJ/mol]
      Exch11(S^2)                  -0.01756334 [mEh]      -0.01102117 [kcal/mol]      -0.04611255 [kJ/mol]
      Exch12(S^2)                   0.46291740 [mEh]       0.29048505 [kcal/mol]       1.21538946 [kJ/mol]

    Induction                     -11.12700278 [mEh]      -6.98229966 [kcal/mol]     -29.21394178 [kJ/mol]
      Ind20,r                     -11.00350904 [mEh]      -6.90480617 [kcal/mol]     -28.88970900 [kJ/mol]
      Ind22                        -1.52788937 [mEh]      -0.95876505 [kcal/mol]      -4.01147299 [kJ/mol]
      Exch-Ind20,r                  1.88574220 [mEh]       1.18332109 [kcal/mol]       4.95101545 [kJ/mol]
      Exch-Ind22                    0.26184424 [mEh]       0.16430974 [kcal/mol]       0.68747196 [kJ/mol]
      delta HF,r (2)               -0.74319081 [mEh]      -0.46635927 [kcal/mol]      -1.95124720 [kJ/mol]

    Dispersion                     -0.21133159 [mEh]      -0.13261257 [kcal/mol]      -0.55485101 [kJ/mol]
      Disp20                       -0.18610726 [mEh]      -0.11678407 [kcal/mol]      -0.48862454 [kJ/mol]
      Disp21                       -0.01398139 [mEh]      -0.00877345 [kcal/mol]      -0.03670813 [kJ/mol]
      Disp22 (SDQ)                 -0.00902014 [mEh]      -0.00566022 [kcal/mol]      -0.02368238 [kJ/mol]
      Disp22 (T)                   -0.01242720 [mEh]      -0.00779819 [kcal/mol]      -0.03262762 [kJ/mol]
      Est. Disp22 (T)              -0.01583506 [mEh]      -0.00993665 [kcal/mol]      -0.04157495 [kJ/mol]
      Exch-Disp20                   0.01361226 [mEh]       0.00854182 [kcal/mol]       0.03573899 [kJ/mol]

  Total HF                         20.33855732 [mEh]      12.76263740 [kcal/mol]      53.39887489 [kJ/mol]
  Total SAPT0                      20.16606233 [mEh]      12.65439516 [kcal/mol]      52.94598934 [kJ/mol]
  Total SAPT2                      17.31781563 [mEh]      10.86709337 [kcal/mol]      45.46791866 [kJ/mol]
  Total SAPT2+                     17.27897903 [mEh]      10.84272304 [kcal/mol]      45.36595320 [kJ/mol]

  Special recipe for scaled SAPT0 (see Manual):
    Electrostatics sSAPT0          28.33032605 [mEh]      17.77754799 [kcal/mol]      74.38126080 [kJ/mol]
    Exchange sSAPT0                 1.86918892 [mEh]       1.17293376 [kcal/mol]       4.90755483 [kJ/mol]
    Induction sSAPT0               -9.85810242 [mEh]      -6.18605266 [kcal/mol]     -25.88244433 [kJ/mol]
    Dispersion sSAPT0              -0.17247439 [mEh]      -0.10822931 [kcal/mol]      -0.45283144 [kJ/mol]
  Total sSAPT0                     20.16893817 [mEh]      12.65619978 [kcal/mol]      52.95353987 [kJ/mol]
  --------------------------------------------------------------------------------------------------------

*** Psi4 exiting successfully. Buy a developer a beer!
