                               Psi4 1.9 release

  ==> Input File <==

--------------------------------------------------------------------------
MEMORY 60 GB

molecule dimer {
0 1
O      0.000000     0.000000     0.000000
H      0.588538     0.756918     0.000000
H      0.588538    -0.756918     0.000000
--
1 1
Li     3.024000     0.000000     0.000000

units ang
no_reorient
no_com
symmetry c1
}

set {
basis        aug-cc-pVTZ
scf_type     df
}

energy("sapt2+")
--------------------------------------------------------------------------

  //              Dimer HF             //
    Molecular point group: c1
  Charge       = 1
  Multiplicity = 1
  Basis Set: AUG-CC-PVTZ
    Blend: AUG-CC-PVTZ
  Basis Set: (AUG-CC-PVTZ AUX)
    Blend: AUG-CC-PVTZ-JKFIT + DEF2-UNIVERSAL-JKFIT
  @DF-RHF Final Energy:   -83.28036463043966
    Total Energy =                        -83.2803646304396636
 Dipole X            :        -13.1743159           19.3679467            6.1936308
 Dipole Y            :          0.0000000            0.0000000            0.0000000
 Dipole Z            :          0.0000000            0.0000000            0.0000000
 Magnitude           :                                                    6.1936308
  //            Monomer A HF           //
    Molecular point group: c1
  Multiplicity = 1
  Basis Set: AUG-CC-PVTZ
    Blend: AUG-CC-PVTZ
  Basis Set: (AUG-CC-PVTZ AUX)
    Blend: AUG-CC-PVTZ-JKFIT + DEF2-UNIVERSAL-JKFIT
  @DF-RHF Final Energy:   -76.06050701572457
    Total Energy =                        -76.0605070157245677
  //            Monomer B HF           //
    Molecular point group: c1

    Geometry (in Angstrom), charge = 1, multiplicity = 1:

       Center              X                  Y                   Z               Mass
    ------------   -----------------  -----------------  -----------------  -----------------
      Gh(O)           0.000000000000     0.000000000000     0.000000000000    15.994914619570
      Gh(H)           0.588538000000     0.756918000000     0.000000000000     1.007825032230
      Gh(H)           0.588538000000    -0.756918000000     0.000000000000     1.007825032230
         LI           3.024000000000     0.000000000000     0.000000000000     7.016003436600

  Charge       = 1
  Multiplicity = 1
  Basis Set: AUG-CC-PVTZ
    Blend: AUG-CC-PVTZ
  Basis Set: (AUG-CC-PVTZ AUX)
    Blend: AUG-CC-PVTZ-JKFIT + DEF2-UNIVERSAL-JKFIT

    Orbital Energies [Eh]
    ---------------------

    Doubly Occupied:

       1A     -2.792371

  @DF-RHF Final Energy:    -7.23638315074459

   => Energetics <=

    Nuclear Repulsion Energy =              0.0000000000000000
    One-Electron Energy =                  -8.8880244220096696
    Two-Electron Energy =                   1.6516412712650788
    Total Energy =                         -7.2363831507445910
 Dipole X            :        -11.4291543           17.1435954            5.7144411
 Dipole Y            :         -0.0000000            0.0000000           -0.0000000
 Dipole Z            :          0.0000000            0.0000000            0.0000000
 Magnitude           :                                                    5.7144411

    SAPT Results
  --------------------------------------------------------------------------------------------------------
    Electrostatics                 20.28735509 [mEh]      12.73050752 [kcal/mol]      53.26444346 [kJ/mol]
      Elst10,r                     21.82577695 [mEh]      13.69588181 [kcal/mol]      57.30356949 [kJ/mol]
      Elst12,r                     -1.53842186 [mEh]      -0.96537429 [kcal/mol]      -4.03912603 [kJ/mol]

    Exchange                        0.43510516 [mEh]       0.27303261 [kcal/mol]       1.14236845 [kJ/mol]
      Exch10                        0.32936143 [mEh]       0.20667742 [kcal/mol]       0.86473832 [kJ/mol]
      Exch10(S^2)                   0.32933167 [mEh]       0.20665874 [kcal/mol]       0.86466017 [kJ/mol]
      Exch11(S^2)                  -0.00252817 [mEh]      -0.00158645 [kcal/mol]      -0.00663771 [kJ/mol]
      Exch12(S^2)                   0.10827190 [mEh]       0.06794164 [kcal/mol]       0.28426783 [kJ/mol]

    Induction                      -6.33878860 [mEh]      -3.97764990 [kcal/mol]     -16.64248718 [kJ/mol]
      Ind20,r                      -5.48880832 [mEh]      -3.44427922 [kcal/mol]     -14.41086426 [kJ/mol]
      Ind22                        -0.76050221 [mEh]      -0.47722234 [kcal/mol]      -1.99669828 [kJ/mol]
      Exch-Ind20,r                  0.37036514 [mEh]       0.23240763 [kcal/mol]       0.97239354 [kJ/mol]
      Exch-Ind22                    0.05131597 [mEh]       0.03220126 [kcal/mol]       0.13473005 [kJ/mol]
      delta HF,r (2)               -0.51115917 [mEh]      -0.32075722 [kcal/mol]      -1.34204823 [kJ/mol]

    Dispersion                     -0.06896173 [mEh]      -0.04327414 [kcal/mol]      -0.18105901 [kJ/mol]
      Disp20                       -0.05922300 [mEh]      -0.03716299 [kcal/mol]      -0.15548996 [kJ/mol]
      Disp21                       -0.00401014 [mEh]      -0.00251640 [kcal/mol]      -0.01052863 [kJ/mol]
      Disp22 (SDQ)                 -0.00332164 [mEh]      -0.00208436 [kcal/mol]      -0.00872095 [kJ/mol]
      Disp22 (T)                   -0.00434038 [mEh]      -0.00272363 [kcal/mol]      -0.01139567 [kJ/mol]
      Est. Disp22 (T)              -0.00525034 [mEh]      -0.00329464 [kcal/mol]      -0.01378477 [kJ/mol]
      Exch-Disp20                   0.00284339 [mEh]       0.00178425 [kcal/mol]       0.00746531 [kJ/mol]

  Total HF                         16.52553603 [mEh]      10.36993042 [kcal/mol]      43.38778887 [kJ/mol]
  Total SAPT0                      16.46915642 [mEh]      10.33455168 [kcal/mol]      43.23976422 [kJ/mol]
  Total SAPT2                      14.32729204 [mEh]       8.99051149 [kcal/mol]      37.61630008 [kJ/mol]
  Total SAPT2+                     14.31470992 [mEh]       8.98261609 [kcal/mol]      37.58326572 [kJ/mol]

  Special recipe for scaled SAPT0 (see Manual):
    Electrostatics sSAPT0          21.82577695 [mEh]      13.69588181 [kcal/mol]      57.30356949 [kJ/mol]
    Exchange sSAPT0                 0.32936143 [mEh]       0.20667742 [kcal/mol]       0.86473832 [kJ/mol]
    Induction sSAPT0               -5.62950192 [mEh]      -3.53256579 [kcal/mol]     -14.78025525 [kJ/mol]
    Dispersion sSAPT0              -0.05637884 [mEh]      -0.03537826 [kcal/mol]      -0.14802263 [kJ/mol]
  Total sSAPT0                     16.46925763 [mEh]      10.33461519 [kcal/mol]      43.24002994 [kJ/mol]
  --------------------------------------------------------------------------------------------------------

*** Psi4 exiting successfully. Buy a developer a beer!
