                               Psi4 1.9 release

  ==> Input File <==

--------------------------------------------------------------------------
MEMORY 60 GB

molecule dimer {
0 1
O      0.000000     0.000000     0.000000
H      0.588538     0.756918     0.000000
H      0.588538    -0.756918     0.000000
--
1 1
Li     3.240000     0.000000     0.000000

units ang
no_reorient
no_com
symmetry c1
}

set {
basis        aug-cc-pVTZ
scf_type     df
}

energy("sapt2+")
--------------------------------------------------------------------------

  //              Dimer HF             //
    Molecular point group: c1
  Charge       = 1
  Multiplicity = 1
  Basis Set: AUG-CC-PVTZ
    Blend: AUG-CC-PVTZ
  Basis Set: (AUG-CC-PVTZ AUX)
    Blend: AUG-CC-PVTZ-JKFIT + DEF2-UNIVERSAL-JKFIT
  @DF-RHF Final Energy:   -83.28167966337259
    Total Energy =                        -83.2816796633725858
 Dipole X            :        -13.9527062           20.5924892            6.6397830
 Dipole Y            :         -0.0000000            0.0000000           -0.0000000
 Dipole Z            :         -0.0000000            0.0000000           -0.0000000
 Magnitude           :                                                    6.6397830
  //            Monomer A HF           //
    Molecular point group: c1
  Multiplicity = 1
  Basis Set: AUG-CC-PVTZ
    Blend: AUG-CC-PVTZ
  Basis Set: (AUG-CC-PVTZ AUX)
    Blend: AUG-CC-PVTZ-JKFIT + DEF2-UNIVERSAL-JKFIT
  @DF-RHF Final Energy:   -76.06050254150689
    Total Energy =                        -76.0605025415068923
  //            Monomer B HF           //
    Molecular point group: c1

    Geometry (in Angstrom), charge = 1, multiplicity = 1:

       Center              X                  Y                   Z               Mass
    ------------   -----------------  -----------------  -----------------  -----------------
      Gh(O)           0.000000000000     0.000000000000     0.000000000000    15.994914619570
      Gh(H)           0.588538000000     0.756918000000     0.000000000000     1.007825032230
      Gh(H)           0.588538000000    -0.756918000000     0.000000000000     1.007825032230
         LI           3.240000000000     0.000000000000     0.000000000000     7.016003436600

  Charge       = 1
  Multiplicity = 1
  Basis Set: AUG-CC-PVTZ
    Blend: AUG-CC-PVTZ
  Basis Set: (AUG-CC-PVTZ AUX)
    Blend: AUG-CC-PVTZ-JKFIT + DEF2-UNIVERSAL-JKFIT

    Orbital Energies [Eh]
    ---------------------

    Doubly Occupied:

       1A     -2.792370

  @DF-RHF Final Energy:    -7.23638304699874

   => Energetics <=

    Nuclear Repulsion Energy =              0.0000000000000000
    One-Electron Energy =                  -8.8880261090056596
    Two-Electron Energy =                   1.6516430620069229
    Total Energy =                         -7.2363830469987365
 Dipole X            :        -12.2455065           18.3681379            6.1226314
 Dipole Y            :          0.0000000            0.0000000            0.0000000
 Dipole Z            :         -0.0000000            0.0000000           -0.0000000
 Magnitude           :                                                    6.1226314

    SAPT Results
  --------------------------------------------------------------------------------------------------------
    Electrostatics                 17.97036502 [mEh]      11.27657430 [kcal/mol]      47.18118686 [kJ/mol]
      Elst10,r                     19.31878592 [mEh]      12.12272119 [kcal/mol]      50.72146544 [kJ/mol]
      Elst12,r                     -1.34842090 [mEh]      -0.84614689 [kcal/mol]      -3.54027859 [kJ/mol]

    Exchange                        0.18861783 [mEh]       0.11835948 [kcal/mol]       0.49521605 [kJ/mol]
      Exch10                        0.13863774 [mEh]       0.08699650 [kcal/mol]       0.36399334 [kJ/mol]
      Exch10(S^2)                   0.13863243 [mEh]       0.08699317 [kcal/mol]       0.36397941 [kJ/mol]
      Exch11(S^2)                  -0.00096955 [mEh]      -0.00060840 [kcal/mol]      -0.00254556 [kJ/mol]
      Exch12(S^2)                   0.05094964 [mEh]       0.03197138 [kcal/mol]       0.13376827 [kJ/mol]

    Induction                      -4.78177814 [mEh]      -3.00061108 [kcal/mol]     -12.55455677 [kJ/mol]
      Ind20,r                      -4.03263993 [mEh]      -2.53051976 [kcal/mol]     -10.58769469 [kJ/mol]
      Ind22                        -0.55260830 [mEh]      -0.34676695 [kcal/mol]      -1.45087290 [kJ/mol]
      Exch-Ind20,r                  0.16294287 [mEh]       0.10224820 [kcal/mol]       0.42780645 [kJ/mol]
      Exch-Ind22                    0.02232869 [mEh]       0.01401147 [kcal/mol]       0.05862398 [kJ/mol]
      delta HF,r (2)               -0.38180147 [mEh]      -0.23958404 [kcal/mol]      -1.00241961 [kJ/mol]

    Dispersion                     -0.04132700 [mEh]      -0.02593308 [kcal/mol]      -0.10850401 [kJ/mol]
      Disp20                       -0.03521380 [mEh]      -0.02209699 [kcal/mol]      -0.09245383 [kJ/mol]
      Disp21                       -0.00222571 [mEh]      -0.00139666 [kcal/mol]      -0.00584361 [kJ/mol]
      Disp22 (SDQ)                 -0.00201049 [mEh]      -0.00126160 [kcal/mol]      -0.00527853 [kJ/mol]
      Disp22 (T)                   -0.00267848 [mEh]      -0.00168077 [kcal/mol]      -0.00703235 [kJ/mol]
      Est. Disp22 (T)              -0.00316432 [mEh]      -0.00198564 [kcal/mol]      -0.00830793 [kJ/mol]
      Exch-Disp20                   0.00128733 [mEh]       0.00080781 [kcal/mol]       0.00337989 [kJ/mol]

  Total HF                         15.20592513 [mEh]       9.54186208 [kcal/mol]      39.92315094 [kJ/mol]
  Total SAPT0                      15.17199866 [mEh]       9.52057290 [kcal/mol]      39.83407700 [kJ/mol]
  Total SAPT2                      13.34327824 [mEh]       8.37303351 [kcal/mol]      35.03277219 [kJ/mol]
  Total SAPT2+                     13.33587772 [mEh]       8.36838961 [kcal/mol]      35.01334212 [kJ/mol]

  Special recipe for scaled SAPT0 (see Manual):
    Electrostatics sSAPT0          19.31878592 [mEh]      12.12272119 [kcal/mol]      50.72146544 [kJ/mol]
    Exchange sSAPT0                 0.13863774 [mEh]       0.08699650 [kcal/mol]       0.36399334 [kJ/mol]
    Induction sSAPT0               -4.25147981 [mEh]      -2.66784386 [kcal/mol]     -11.16225872 [kJ/mol]
    Dispersion sSAPT0              -0.03392632 [mEh]      -0.02128909 [kcal/mol]      -0.08907355 [kJ/mol]
  Total sSAPT0                     15.17201752 [mEh]       9.52058473 [kcal/mol]      39.83412652 [kJ/mol]
  --------------------------------------------------------------------------------------------------------

*** Psi4 exiting successfully. Buy a developer a beer!
