                               Psi4 1.9 release

  ==> Input File <==

--------------------------------------------------------------------------
MEMORY 60 GB

molecule dimer {
0 1
O      0.000000     0.000000     0.000000
H      0.588538     0.756918     0.000000
H      0.588538    -0.756918     0.000000
--
1 1
Li     2.160000     0.000000     0.000000

units ang
no_reorient
no_com
symmetry c1
}

set {
basis        aug-cc-pVTZ
scf_type     df
}

energy("sapt2+")
--------------------------------------------------------------------------

  //              Dimer HF             //
    Molecular point group: c1
  Charge       = 1
  Multiplicity = 1
  Basis Set: AUG-CC-PVTZ
    Blend: AUG-CC-PVTZ
  Basis Set: (AUG-CC-PVTZ AUX)
    Blend: AUG-CC-PVTZ-JKFIT + DEF2-UNIVERSAL-JKFIT
  @DF-RHF Final Energy:   -83.26591068427223
    Total Energy =                        -83.2659106842722281
 Dipole X            :        -10.0554574           14.4697766            4.4143192
 Dipole Y            :          0.0000000            0.0000000            0.0000000
 Dipole Z            :          0.0000000            0.0000000            0.0000000
 Magnitude           :                                                    4.4143192
  //            Monomer A HF           //
    Molecular point group: c1
  Multiplicity = 1
  Basis Set: AUG-CC-PVTZ
    Blend: AUG-CC-PVTZ
  Basis Set: (AUG-CC-PVTZ AUX)
    Blend: AUG-CC-PVTZ-JKFIT + DEF2-UNIVERSAL-JKFIT
  @DF-RHF Final Energy:   -76.06053209052826
    Total Energy =                        -76.0605320905282554
  //            Monomer B HF           //
    Molecular point group: c1

    Geometry (in Angstrom), charge = 1, multiplicity = 1:

       Center              X                  Y                   Z               Mass
    ------------   -----------------  -----------------  -----------------  -----------------
      Gh(O)           0.000000000000     0.000000000000     0.000000000000    15.994914619570
      Gh(H)           0.588538000000     0.756918000000     0.000000000000     1.007825032230
      Gh(H)           0.588538000000    -0.756918000000     0.000000000000     1.007825032230
         LI           2.160000000000     0.000000000000     0.000000000000     7.016003436600

  Charge       = 1
  Multiplicity = 1
  Basis Set: AUG-CC-PVTZ
    Blend: AUG-CC-PVTZ
  Basis Set: (AUG-CC-PVTZ AUX)
    Blend: AUG-CC-PVTZ-JKFIT + DEF2-UNIVERSAL-JKFIT

    Orbital Energies [Eh]
    ---------------------

    Doubly Occupied:

       1A     -2.792367

  @DF-RHF Final Energy:    -7.23638365578719

   => Energetics <=

    Nuclear Repulsion Energy =              0.0000000000000000
    One-Electron Energy =                  -8.8880334046223872
    Two-Electron Energy =                   1.6516497488352009
    Total Energy =                         -7.2363836557871863
 Dipole X            :         -8.1636224           12.2454253            4.0818029
 Dipole Y            :          0.0000000            0.0000000            0.0000000
 Dipole Z            :         -0.0000000            0.0000000           -0.0000000
 Magnitude           :                                                    4.0818029

    SAPT Results
  --------------------------------------------------------------------------------------------------------
    Electrostatics                 34.81033069 [mEh]      21.84381229 [kcal/mol]      91.39451064 [kJ/mol]
      Elst10,r                     37.42878966 [mEh]      23.48692011 [kcal/mol]      98.26927372 [kJ/mol]
      Elst12,r                     -2.61845897 [mEh]      -1.64310781 [kcal/mol]      -6.87476308 [kJ/mol]

    Exchange                       12.14003008 [mEh]       7.61798388 [kcal/mol]      31.87364457 [kJ/mol]
      Exch10                       10.52967399 [mEh]       6.60747019 [kcal/mol]      27.64565526 [kJ/mol]
      Exch10(S^2)                  10.50056645 [mEh]       6.58920493 [kcal/mol]      27.56923341 [kJ/mol]
      Exch11(S^2)                  -0.12967684 [mEh]      -0.08137345 [kcal/mol]      -0.34046650 [kJ/mol]
      Exch12(S^2)                   1.74003292 [mEh]       1.09188714 [kcal/mol]       4.56845581 [kJ/mol]

    Induction                     -19.00074573 [mEh]     -11.92314795 [kcal/mol]     -49.88645103 [kJ/mol]
      Ind20,r                     -24.86578111 [mEh]     -15.60351322 [kcal/mol]     -65.28509932 [kJ/mol]
      Ind22                        -3.22813730 [mEh]      -2.02568674 [kcal/mol]      -8.47547331 [kJ/mol]
      Exch-Ind20,r                  9.09544489 [mEh]       5.70747784 [kcal/mol]      23.88008727 [kJ/mol]
      Exch-Ind22                    1.18079319 [mEh]       0.74095891 [kcal/mol]       3.10017208 [kJ/mol]
      delta HF,r (2)               -1.18306539 [mEh]      -0.74238474 [kcal/mol]      -3.10613776 [kJ/mol]

    Dispersion                     -0.69674571 [mEh]      -0.43721453 [kcal/mol]      -1.82930560 [kJ/mol]
      Disp20                       -0.63755571 [mEh]      -0.40007225 [kcal/mol]      -1.67390230 [kJ/mol]
      Disp21                       -0.04965348 [mEh]      -0.03115803 [kcal/mol]      -0.13036519 [kJ/mol]
      Disp22 (SDQ)                 -0.02133869 [mEh]      -0.01339023 [kcal/mol]      -0.05602472 [kJ/mol]
      Disp22 (T)                   -0.03866380 [mEh]      -0.02426190 [kcal/mol]      -0.10151179 [kJ/mol]
      Est. Disp22 (T)              -0.05043925 [mEh]      -0.03165110 [kcal/mol]      -0.13242822 [kJ/mol]
      Exch-Disp20                   0.06224143 [mEh]       0.03905708 [kcal/mol]       0.16341484 [kJ/mol]

  Total HF                         31.00506204 [mEh]      19.45597017 [kcal/mol]      81.40377918 [kJ/mol]
  Total SAPT0                      30.42974775 [mEh]      19.09495500 [kcal/mol]      79.89329172 [kJ/mol]
  Total SAPT2                      27.37430075 [mEh]      17.17763306 [kcal/mol]      71.87121672 [kJ/mol]
  Total SAPT2+                     27.25286934 [mEh]      17.10143370 [kcal/mol]      71.55239858 [kJ/mol]

  Special recipe for scaled SAPT0 (see Manual):
    Electrostatics sSAPT0          37.42878966 [mEh]      23.48692011 [kcal/mol]      98.26927372 [kJ/mol]
    Exchange sSAPT0                10.52967399 [mEh]       6.60747019 [kcal/mol]      27.64565526 [kJ/mol]
    Induction sSAPT0              -16.87755410 [mEh]     -10.59082509 [kcal/mol]     -44.31201218 [kJ/mol]
    Dispersion sSAPT0              -0.57479525 [mEh]      -0.36068947 [kcal/mol]      -1.50912473 [kJ/mol]
  Total sSAPT0                     30.50611431 [mEh]      19.14287573 [kcal/mol]      80.09379207 [kJ/mol]
  --------------------------------------------------------------------------------------------------------

*** Psi4 exiting successfully. Buy a developer a beer!
