                               Psi4 1.9 release

  ==> Input File <==

--------------------------------------------------------------------------
MEMORY 60 GB

molecule dimer {
0 1
O      0.000000     0.000000     0.000000
H      0.588538     0.756918     0.000000
H      0.588538    -0.756918     0.000000
--
1 1
Li     2.808000     0.000000     0.000000

units ang
no_reorient
no_com
symmetry c1
}

set {
basis        aug-cc-pVTZ
scf_type     df
}

energy("sapt2+")
--------------------------------------------------------------------------

  //              Dimer HF             //
    Molecular point group: c1
  Charge       = 1
  Multiplicity = 1
  Basis Set: AUG-CC-PVTZ
    Blend: AUG-CC-PVTZ
  Basis Set: (AUG-CC-PVTZ AUX)
    Blend: AUG-CC-PVTZ-JKFIT + DEF2-UNIVERSAL-JKFIT
  @DF-RHF Final Energy:   -83.27877693083434
    Total Energy =                        -83.2787769308343400
 Dipole X            :        -12.3990336           18.1434041            5.7443706
 Dipole Y            :         -0.0000000            0.0000000           -0.0000000
 Dipole Z            :          0.0000000            0.0000000            0.0000000
 Magnitude           :                                                    5.7443706
  //            Monomer A HF           //
    Molecular point group: c1
  Multiplicity = 1
  Basis Set: AUG-CC-PVTZ
    Blend: AUG-CC-PVTZ
  Basis Set: (AUG-CC-PVTZ AUX)
    Blend: AUG-CC-PVTZ-JKFIT + DEF2-UNIVERSAL-JKFIT
  @DF-RHF Final Energy:   -76.06051261543526
    Total Energy =                        -76.0605126154352575
  //            Monomer B HF           //
    Molecular point group: c1

    Geometry (in Angstrom), charge = 1, multiplicity = 1:

       Center              X                  Y                   Z               Mass
    ------------   -----------------  -----------------  -----------------  -----------------
      Gh(O)           0.000000000000     0.000000000000     0.000000000000    15.994914619570
      Gh(H)           0.588538000000     0.756918000000     0.000000000000     1.007825032230
      Gh(H)           0.588538000000    -0.756918000000     0.000000000000     1.007825032230
         LI           2.808000000000     0.000000000000     0.000000000000     7.016003436600

  Charge       = 1
  Multiplicity = 1
  Basis Set: AUG-CC-PVTZ
    Blend: AUG-CC-PVTZ
  Basis Set: (AUG-CC-PVTZ AUX)
    Blend: AUG-CC-PVTZ-JKFIT + DEF2-UNIVERSAL-JKFIT

    Orbital Energies [Eh]
    ---------------------

    Doubly Occupied:

       1A     -2.792372

  @DF-RHF Final Energy:    -7.23638325002675

   => Energetics <=

    Nuclear Repulsion Energy =              0.0000000000000000
    One-Electron Energy =                  -8.8880228267514028
    Two-Electron Energy =                   1.6516395767246494
    Total Energy =                         -7.2363832500267531
 Dipole X            :        -10.6127862           15.9190529            5.3062667
 Dipole Y            :         -0.0000000            0.0000000           -0.0000000
 Dipole Z            :         -0.0000000            0.0000000           -0.0000000
 Magnitude           :                                                    5.3062667

    SAPT Results
  --------------------------------------------------------------------------------------------------------
    Electrostatics                 23.03404857 [mEh]      14.45408370 [kcal/mol]      60.47588619 [kJ/mol]
      Elst10,r                     24.79829550 [mEh]      15.56116536 [kcal/mol]      65.10791588 [kJ/mol]
      Elst12,r                     -1.76424693 [mEh]      -1.10708167 [kcal/mol]      -4.63202969 [kJ/mol]

    Exchange                        1.00448531 [mEh]       0.63032405 [kcal/mol]       2.63727582 [kJ/mol]
      Exch10                        0.78468867 [mEh]       0.49239957 [kcal/mol]       2.06019982 [kJ/mol]
      Exch10(S^2)                   0.78452103 [mEh]       0.49229438 [kcal/mol]       2.05975967 [kJ/mol]
      Exch11(S^2)                  -0.00662875 [mEh]      -0.00415960 [kcal/mol]      -0.01740378 [kJ/mol]
      Exch12(S^2)                   0.22642539 [mEh]       0.14208408 [kcal/mol]       0.59447978 [kJ/mol]

    Induction                      -8.41514865 [mEh]      -5.28058550 [kcal/mol]     -22.09396972 [kJ/mol]
      Ind20,r                      -7.66284320 [mEh]      -4.80850670 [kcal/mol]     -20.11879204 [kJ/mol]
      Ind22                        -1.06805925 [mEh]      -0.67021730 [kcal/mol]      -2.80418918 [kJ/mol]
      Exch-Ind20,r                  0.83913632 [mEh]       0.52656599 [kcal/mol]       2.20315210 [kJ/mol]
      Exch-Ind22                    0.11696015 [mEh]       0.07339360 [kcal/mol]       0.30707884 [kJ/mol]
      delta HF,r (2)               -0.64034267 [mEh]      -0.40182109 [kcal/mol]      -1.68121945 [kJ/mol]

    Dispersion                     -0.11914329 [mEh]      -0.07476354 [kcal/mol]      -0.31281065 [kJ/mol]
      Disp20                       -0.10348071 [mEh]      -0.06493513 [kcal/mol]      -0.27168858 [kJ/mol]
      Disp21                       -0.00742510 [mEh]      -0.00465932 [kcal/mol]      -0.01949459 [kJ/mol]
      Disp22 (SDQ)                 -0.00550481 [mEh]      -0.00345432 [kcal/mol]      -0.01445288 [kJ/mol]
      Disp22 (T)                   -0.00719047 [mEh]      -0.00451208 [kcal/mol]      -0.01887856 [kJ/mol]
      Est. Disp22 (T)              -0.00898356 [mEh]      -0.00563727 [kcal/mol]      -0.02358634 [kJ/mol]
      Exch-Disp20                   0.00625090 [mEh]       0.00392250 [kcal/mol]       0.01641174 [kJ/mol]

  Total HF                         18.11893463 [mEh]      11.36980313 [kcal/mol]      47.57125631 [kJ/mol]
  Total SAPT0                      18.02170482 [mEh]      11.30879051 [kcal/mol]      47.31597948 [kJ/mol]
  Total SAPT2                      15.52615542 [mEh]       9.74280962 [kcal/mol]      40.76391545 [kJ/mol]
  Total SAPT2+                     15.50424195 [mEh]       9.72905871 [kcal/mol]      40.70638163 [kJ/mol]

  Special recipe for scaled SAPT0 (see Manual):
    Electrostatics sSAPT0          24.79829550 [mEh]      15.56116536 [kcal/mol]      65.10791588 [kJ/mol]
    Exchange sSAPT0                 0.78468867 [mEh]       0.49239957 [kcal/mol]       2.06019982 [kJ/mol]
    Induction sSAPT0               -7.46351149 [mEh]      -4.68342417 [kcal/mol]     -19.59544671 [kJ/mol]
    Dispersion sSAPT0              -0.09722580 [mEh]      -0.06101011 [kcal/mol]      -0.25526631 [kJ/mol]
  Total sSAPT0                     18.02224688 [mEh]      11.30913066 [kcal/mol]      47.31740268 [kJ/mol]
  --------------------------------------------------------------------------------------------------------

*** Psi4 exiting successfully. Buy a developer a beer!
