                               Psi4 1.9 release

  ==> Input File <==

--------------------------------------------------------------------------
MEMORY 60 GB

molecule dimer {
0 1
O      0.000000     0.000000     0.000000
H      0.588538     0.756918     0.000000
H      0.588538    -0.756918     0.000000
--
1 1
Na     2.904000     0.000000     0.000000

units ang
no_reorient
no_com
symmetry c1
}

set {
basis        aug-cc-pVTZ
scf_type     df
}

energy("sapt2+")
--------------------------------------------------------------------------

  //              Dimer HF             //
    Molecular point group: c1
  Charge       = 1
  Multiplicity = 1
  Basis Set: AUG-CC-PVTZ
    Blend: AUG-CC-PVTZ
  Basis Set: (AUG-CC-PVTZ AUX)
    Blend: AUG-CC-PVTZ-JKFIT + DEF2-UNIVERSAL-JKFIT
  @DF-RHF Final Energy:  -237.71739933953705
    Total Energy =                       -237.7173993395370530
 Dipole X            :        -56.6158504           62.5897626            5.9739123
 Dipole Y            :          0.0000000            0.0000000            0.0000000
 Dipole Z            :          0.0000000            0.0000000            0.0000000
 Magnitude           :                                                    5.9739123
  //            Monomer A HF           //
    Molecular point group: c1
  Multiplicity = 1
  Basis Set: AUG-CC-PVTZ
    Blend: AUG-CC-PVTZ
  Basis Set: (AUG-CC-PVTZ AUX)
    Blend: AUG-CC-PVTZ-JKFIT + DEF2-UNIVERSAL-JKFIT
  @DF-RHF Final Energy:   -76.06050924345098
    Total Energy =                        -76.0605092434509800
  //            Monomer B HF           //
    Molecular point group: c1

    Geometry (in Angstrom), charge = 1, multiplicity = 1:

       Center              X                  Y                   Z               Mass
    ------------   -----------------  -----------------  -----------------  -----------------
      Gh(O)           0.000000000000     0.000000000000     0.000000000000    15.994914619570
      Gh(H)           0.588538000000     0.756918000000     0.000000000000     1.007825032230
      Gh(H)           0.588538000000    -0.756918000000     0.000000000000     1.007825032230
         NA           2.904000000000     0.000000000000     0.000000000000    22.989769282000

  Charge       = 1
  Multiplicity = 1
  Basis Set: AUG-CC-PVTZ
    Blend: AUG-CC-PVTZ
  Basis Set: (AUG-CC-PVTZ AUX)
    Blend: AUG-CC-PVTZ-JKFIT + DEF2-UNIVERSAL-JKFIT

    Orbital Energies [Eh]
    ---------------------

    Doubly Occupied:

       1A    -40.762946     2A     -3.074959     3A     -1.798223
       4A     -1.798146     5A     -1.798096

  @DF-RHF Final Energy:  -161.67603948878650

   => Energetics <=

    Nuclear Repulsion Energy =              0.0000000000000000
    One-Electron Energy =                -224.8873395450669932
    Two-Electron Energy =                  63.2113000562805070
    Total Energy =                       -161.6760394887865004
 Dipole X            :        -54.8783985           60.3654114            5.4870128
 Dipole Y            :         -0.0000000            0.0000000           -0.0000000
 Dipole Z            :         -0.0000000            0.0000000           -0.0000000
 Magnitude           :                                                    5.4870128

    SAPT Results
  --------------------------------------------------------------------------------------------------------
    Electrostatics                 21.32055909 [mEh]      13.37885282 [kcal/mol]      55.97712019 [kJ/mol]
      Elst10,r                     23.11176876 [mEh]      14.50285385 [kcal/mol]      60.67994053 [kJ/mol]
      Elst12,r                     -1.79120967 [mEh]      -1.12400104 [kcal/mol]      -4.70282034 [kJ/mol]

    Exchange                        2.21368379 [mEh]       1.38910755 [kcal/mol]       5.81202598 [kJ/mol]
      Exch10                        1.76386743 [mEh]       1.10684352 [kcal/mol]       4.63103329 [kJ/mol]
      Exch10(S^2)                   1.76294137 [mEh]       1.10626241 [kcal/mol]       4.62860193 [kJ/mol]
      Exch11(S^2)                  -0.02018685 [mEh]      -0.01266744 [kcal/mol]      -0.05300057 [kJ/mol]
      Exch12(S^2)                   0.47000321 [mEh]       0.29493147 [kcal/mol]       1.23399326 [kJ/mol]

    Induction                      -6.70410991 [mEh]      -4.20689248 [kcal/mol]     -17.60163815 [kJ/mol]
      Ind20,r                      -7.81970200 [mEh]      -4.90693709 [kcal/mol]     -20.53062477 [kJ/mol]
      Ind22                        -1.32578832 [mEh]      -0.83194473 [kcal/mol]      -3.48085675 [kJ/mol]
      Exch-Ind20,r                  2.05209648 [mEh]       1.28770998 [kcal/mol]       5.38777858 [kJ/mol]
      Exch-Ind22                    0.34792190 [mEh]       0.21832429 [kcal/mol]       0.91346881 [kJ/mol]
      delta HF,r (2)                0.04136203 [mEh]       0.02595506 [kcal/mol]       0.10859598 [kJ/mol]

    Dispersion                     -0.26953820 [mEh]      -0.16913777 [kcal/mol]      -0.70767244 [kJ/mol]
      Disp20                       -0.22750383 [mEh]      -0.14276081 [kcal/mol]      -0.59731122 [kJ/mol]
      Disp21                       -0.01909123 [mEh]      -0.01197993 [kcal/mol]      -0.05012403 [kJ/mol]
      Disp22 (SDQ)                 -0.01717571 [mEh]      -0.01077792 [kcal/mol]      -0.04509481 [kJ/mol]
      Disp22 (T)                   -0.01930539 [mEh]      -0.01211432 [kcal/mol]      -0.05068631 [kJ/mol]
      Est. Disp22 (T)              -0.02364339 [mEh]      -0.01483645 [kcal/mol]      -0.06207571 [kJ/mol]
      Exch-Disp20                   0.01787596 [mEh]       0.01121733 [kcal/mol]       0.04693333 [kJ/mol]

  Total HF                         19.14939270 [mEh]      12.01642534 [kcal/mol]      50.27672361 [kJ/mol]
  Total SAPT0                      18.93976483 [mEh]      11.88488186 [kcal/mol]      49.72634572 [kJ/mol]
  Total SAPT2                      16.62050510 [mEh]      10.42952441 [kcal/mol]      43.63713013 [kJ/mol]
  Total SAPT2+                     16.56059477 [mEh]      10.39193011 [kcal/mol]      43.47983558 [kJ/mol]

  Special recipe for scaled SAPT0 (see Manual):
    Electrostatics sSAPT0          23.11176876 [mEh]      14.50285385 [kcal/mol]      60.67994053 [kJ/mol]
    Exchange sSAPT0                 1.76386743 [mEh]       1.10684352 [kcal/mol]       4.63103329 [kJ/mol]
    Induction sSAPT0               -5.72300794 [mEh]      -3.59124170 [kcal/mol]     -15.02575527 [kJ/mol]
    Dispersion sSAPT0              -0.20959968 [mEh]      -0.13152579 [kcal/mol]      -0.55030389 [kJ/mol]
  Total sSAPT0                     18.94302857 [mEh]      11.88692989 [kcal/mol]      49.73491466 [kJ/mol]
  --------------------------------------------------------------------------------------------------------

*** Psi4 exiting successfully. Buy a developer a beer!
