                               Psi4 1.9 release

  ==> Input File <==

--------------------------------------------------------------------------
MEMORY 60 GB

molecule dimer {
0 1
O      0.000000     0.000000     0.000000
H      0.588538     0.756918     0.000000
H      0.588538    -0.756918     0.000000
--
1 1
Na     3.630000     0.000000     0.000000

units ang
no_reorient
no_com
symmetry c1
}

set {
basis        aug-cc-pVTZ
scf_type     df
}

energy("sapt2+")
--------------------------------------------------------------------------

  //              Dimer HF             //
    Molecular point group: c1
  Charge       = 1
  Multiplicity = 1
  Basis Set: AUG-CC-PVTZ
    Blend: AUG-CC-PVTZ
  Basis Set: (AUG-CC-PVTZ AUX)
    Blend: AUG-CC-PVTZ-JKFIT + DEF2-UNIVERSAL-JKFIT
  @DF-RHF Final Energy:  -237.72325258545436
    Total Energy =                       -237.7232525854543610
 Dipole X            :        -70.2424579           77.6811155            7.4386575
 Dipole Y            :          0.0000000            0.0000000            0.0000000
 Dipole Z            :          0.0000000            0.0000000            0.0000000
 Magnitude           :                                                    7.4386575
  //            Monomer A HF           //
    Molecular point group: c1
  Multiplicity = 1
  Basis Set: AUG-CC-PVTZ
    Blend: AUG-CC-PVTZ
  Basis Set: (AUG-CC-PVTZ AUX)
    Blend: AUG-CC-PVTZ-JKFIT + DEF2-UNIVERSAL-JKFIT
  @DF-RHF Final Energy:   -76.06049753947219
    Total Energy =                        -76.0604975394721947
  //            Monomer B HF           //
    Molecular point group: c1

    Geometry (in Angstrom), charge = 1, multiplicity = 1:

       Center              X                  Y                   Z               Mass
    ------------   -----------------  -----------------  -----------------  -----------------
      Gh(O)           0.000000000000     0.000000000000     0.000000000000    15.994914619570
      Gh(H)           0.588538000000     0.756918000000     0.000000000000     1.007825032230
      Gh(H)           0.588538000000    -0.756918000000     0.000000000000     1.007825032230
         NA           3.630000000000     0.000000000000     0.000000000000    22.989769282000

  Charge       = 1
  Multiplicity = 1
  Basis Set: AUG-CC-PVTZ
    Blend: AUG-CC-PVTZ
  Basis Set: (AUG-CC-PVTZ AUX)
    Blend: AUG-CC-PVTZ-JKFIT + DEF2-UNIVERSAL-JKFIT

    Orbital Energies [Eh]
    ---------------------

    Doubly Occupied:

       1A    -40.763132     2A     -3.075064     3A     -1.798331
       4A     -1.798215     5A     -1.798192

  @DF-RHF Final Energy:  -161.67603348050761

   => Energetics <=

    Nuclear Repulsion Energy =              0.0000000000000000
    One-Electron Energy =                -224.8861987035014351
    Two-Electron Energy =                  63.2101652229938296
    Total Energy =                       -161.6760334805076127
 Dipole X            :        -68.5976931           75.4567642            6.8590710
 Dipole Y            :         -0.0000000            0.0000000           -0.0000000
 Dipole Z            :          0.0000000            0.0000000            0.0000000
 Magnitude           :                                                    6.8590710

    SAPT Results
  --------------------------------------------------------------------------------------------------------
    Electrostatics                 14.60682619 [mEh]       9.16592182 [kcal/mol]      38.35021688 [kJ/mol]
      Elst10,r                     15.70205680 [mEh]       9.85318940 [kcal/mol]      41.22574445 [kJ/mol]
      Elst12,r                     -1.09523061 [mEh]      -0.68726758 [kcal/mol]      -2.87552757 [kJ/mol]

    Exchange                        0.13557374 [mEh]       0.08507381 [kcal/mol]       0.35594881 [kJ/mol]
      Exch10                        0.09811838 [mEh]       0.06157021 [kcal/mol]       0.25760978 [kJ/mol]
      Exch10(S^2)                   0.09811504 [mEh]       0.06156812 [kcal/mol]       0.25760101 [kJ/mol]
      Exch11(S^2)                  -0.00088262 [mEh]      -0.00055385 [kcal/mol]      -0.00231732 [kJ/mol]
      Exch12(S^2)                   0.03833798 [mEh]       0.02405745 [kcal/mol]       0.10065635 [kJ/mol]

    Induction                      -2.86157818 [mEh]      -1.79566742 [kcal/mol]      -7.51307248 [kJ/mol]
      Ind20,r                      -2.51635295 [mEh]      -1.57903531 [kcal/mol]      -6.60668376 [kJ/mol]
      Ind22                        -0.35734030 [mEh]      -0.22423442 [kcal/mol]      -0.93819683 [kJ/mol]
      Exch-Ind20,r                  0.12325271 [mEh]       0.07734224 [kcal/mol]       0.32359995 [kJ/mol]
      Exch-Ind22                    0.01750278 [mEh]       0.01098316 [kcal/mol]       0.04595353 [kJ/mol]
      delta HF,r (2)               -0.12864042 [mEh]      -0.08072308 [kcal/mol]      -0.33774537 [kJ/mol]

    Dispersion                     -0.06124814 [mEh]      -0.03843379 [kcal/mol]      -0.16080698 [kJ/mol]
      Disp20                       -0.04901815 [mEh]      -0.03075935 [kcal/mol]      -0.12869713 [kJ/mol]
      Disp21                       -0.00373154 [mEh]      -0.00234158 [kcal/mol]      -0.00979715 [kJ/mol]
      Disp22 (SDQ)                 -0.00418821 [mEh]      -0.00262814 [kcal/mol]      -0.01099614 [kJ/mol]
      Disp22 (T)                   -0.00478125 [mEh]      -0.00300028 [kcal/mol]      -0.01255317 [kJ/mol]
      Est. Disp22 (T)              -0.00543434 [mEh]      -0.00341010 [kcal/mol]      -0.01426786 [kJ/mol]
      Exch-Disp20                   0.00112409 [mEh]       0.00070538 [kcal/mol]       0.00295130 [kJ/mol]

  Total HF                         13.27843453 [mEh]       8.33234346 [kcal/mol]      34.86252504 [kJ/mol]
  Total SAPT0                      13.23054047 [mEh]       8.30228949 [kcal/mol]      34.73677921 [kJ/mol]
  Total SAPT2                      11.83292769 [mEh]       7.42527423 [kcal/mol]      31.06734737 [kJ/mol]
  Total SAPT2+                     11.81957361 [mEh]       7.41689441 [kcal/mol]      31.03228623 [kJ/mol]

  Special recipe for scaled SAPT0 (see Manual):
    Electrostatics sSAPT0          15.70205680 [mEh]       9.85318940 [kcal/mol]      41.22574445 [kJ/mol]
    Exchange sSAPT0                 0.09811838 [mEh]       0.06157021 [kcal/mol]       0.25760978 [kJ/mol]
    Induction sSAPT0               -2.52172807 [mEh]      -1.58240825 [kcal/mol]      -6.62079613 [kJ/mol]
    Dispersion sSAPT0              -0.04789394 [mEh]      -0.03005390 [kcal/mol]      -0.12574553 [kJ/mol]
  Total sSAPT0                     13.23055317 [mEh]       8.30229746 [kcal/mol]      34.73681256 [kJ/mol]
  --------------------------------------------------------------------------------------------------------

*** Psi4 exiting successfully. Buy a developer a beer!
