                               Psi4 1.9 release

  ==> Input File <==

--------------------------------------------------------------------------
MEMORY 60 GB

molecule dimer {
0 1
O      0.000000     0.000000     0.000000
H      0.588538     0.756918     0.000000
H      0.588538    -0.756918     0.000000
--
1 1
Na     2.662000     0.000000     0.000000

units ang
no_reorient
no_com
symmetry c1
}

set {
basis        aug-cc-pVTZ
scf_type     df
}

energy("sapt2+")
--------------------------------------------------------------------------

  //              Dimer HF             //
    Molecular point group: c1
  Charge       = 1
  Multiplicity = 1
  Basis Set: AUG-CC-PVTZ
    Blend: AUG-CC-PVTZ
  Basis Set: (AUG-CC-PVTZ AUX)
    Blend: AUG-CC-PVTZ-JKFIT + DEF2-UNIVERSAL-JKFIT
  @DF-RHF Final Energy:  -237.71295499572395
    Total Energy =                       -237.7129549957239476
 Dipole X            :        -52.0695213           57.5593117            5.4897903
 Dipole Y            :          0.0000000            0.0000000            0.0000000
 Dipole Z            :         -0.0000000            0.0000000           -0.0000000
 Magnitude           :                                                    5.4897903
  //            Monomer A HF           //
    Molecular point group: c1
  Multiplicity = 1
  Basis Set: AUG-CC-PVTZ
    Blend: AUG-CC-PVTZ
  Basis Set: (AUG-CC-PVTZ AUX)
    Blend: AUG-CC-PVTZ-JKFIT + DEF2-UNIVERSAL-JKFIT
  @DF-RHF Final Energy:   -76.06051809026143
    Total Energy =                        -76.0605180902614251
  //            Monomer B HF           //
    Molecular point group: c1

    Geometry (in Angstrom), charge = 1, multiplicity = 1:

       Center              X                  Y                   Z               Mass
    ------------   -----------------  -----------------  -----------------  -----------------
      Gh(O)           0.000000000000     0.000000000000     0.000000000000    15.994914619570
      Gh(H)           0.588538000000     0.756918000000     0.000000000000     1.007825032230
      Gh(H)           0.588538000000    -0.756918000000     0.000000000000     1.007825032230
         NA           2.662000000000     0.000000000000     0.000000000000    22.989769282000

  Charge       = 1
  Multiplicity = 1
  Basis Set: AUG-CC-PVTZ
    Blend: AUG-CC-PVTZ
  Basis Set: (AUG-CC-PVTZ AUX)
    Blend: AUG-CC-PVTZ-JKFIT + DEF2-UNIVERSAL-JKFIT

    Orbital Energies [Eh]
    ---------------------

    Doubly Occupied:

       1A    -40.762836     2A     -3.074903     3A     -1.798172
       4A     -1.798109     5A     -1.798034

  @DF-RHF Final Energy:  -161.67604395518529

   => Energetics <=

    Nuclear Repulsion Energy =              0.0000000000000000
    One-Electron Energy =                -224.8879814977291005
    Two-Electron Energy =                  63.2119375425438079
    Total Energy =                       -161.6760439551852926
 Dipole X            :        -50.3052709           55.3349604            5.0296895
 Dipole Y            :          0.0000000            0.0000000            0.0000000
 Dipole Z            :         -0.0000000            0.0000000           -0.0000000
 Magnitude           :                                                    5.0296895

    SAPT Results
  --------------------------------------------------------------------------------------------------------
    Electrostatics                 24.01840642 [mEh]      15.07177757 [kcal/mol]      63.06031737 [kJ/mol]
      Elst10,r                     26.25553504 [mEh]      16.47559697 [kcal/mol]      68.93389774 [kJ/mol]
      Elst12,r                     -2.23712862 [mEh]      -1.40381940 [kcal/mol]      -5.87358037 [kJ/mol]

    Exchange                        5.67701911 [mEh]       3.56238327 [kcal/mol]      14.90501161 [kJ/mol]
      Exch10                        4.70109888 [mEh]       2.94998408 [kcal/mol]      12.34273340 [kJ/mol]
      Exch10(S^2)                   4.69490182 [mEh]       2.94609537 [kcal/mol]      12.32646304 [kJ/mol]
      Exch11(S^2)                  -0.06135445 [mEh]      -0.03850050 [kcal/mol]      -0.16108608 [kJ/mol]
      Exch12(S^2)                   1.03727468 [mEh]       0.65089969 [kcal/mol]       2.72336429 [kJ/mol]

    Induction                      -8.72671578 [mEh]      -5.47609682 [kcal/mol]     -22.91198912 [kJ/mol]
      Ind20,r                     -13.05726520 [mEh]      -8.19355761 [kcal/mol]     -34.28184505 [kJ/mol]
      Ind22                        -2.31545084 [mEh]      -1.45296734 [kcal/mol]      -6.07921534 [kJ/mol]
      Exch-Ind20,r                  5.29135973 [mEh]       3.32037836 [kcal/mol]      13.89246305 [kJ/mol]
      Exch-Ind22                    0.93831925 [mEh]       0.58880422 [kcal/mol]       2.46355686 [kJ/mol]
      delta HF,r (2)                0.41632128 [mEh]       0.26124555 [kcal/mol]       1.09305136 [kJ/mol]

    Dispersion                     -0.46522099 [mEh]      -0.29193058 [kcal/mol]      -1.22143753 [kJ/mol]
      Disp20                       -0.40904741 [mEh]      -0.25668112 [kcal/mol]      -1.07395382 [kJ/mol]
      Disp21                       -0.03343820 [mEh]      -0.02098279 [kcal/mol]      -0.08779199 [kJ/mol]
      Disp22 (SDQ)                 -0.02837136 [mEh]      -0.01780330 [kcal/mol]      -0.07448899 [kJ/mol]
      Disp22 (T)                   -0.03402331 [mEh]      -0.02134995 [kcal/mol]      -0.08932819 [kJ/mol]
      Est. Disp22 (T)              -0.04206287 [mEh]      -0.02639485 [kcal/mol]      -0.11043606 [kJ/mol]
      Exch-Disp20                   0.04769886 [mEh]       0.02993148 [kcal/mol]       0.12523333 [kJ/mol]

  Total HF                         23.60704972 [mEh]      14.81364735 [kcal/mol]      61.98030051 [kJ/mol]
  Total SAPT0                      23.24570117 [mEh]      14.58689771 [kcal/mol]      61.03158002 [kJ/mol]
  Total SAPT2                      20.60736120 [mEh]      12.93131438 [kcal/mol]      54.10461938 [kJ/mol]
  Total SAPT2+                     20.50348877 [mEh]      12.86613345 [kcal/mol]      53.83190234 [kJ/mol]

  Special recipe for scaled SAPT0 (see Manual):
    Electrostatics sSAPT0          26.25553504 [mEh]      16.47559697 [kcal/mol]      68.93389774 [kJ/mol]
    Exchange sSAPT0                 4.70109888 [mEh]       2.94998408 [kcal/mol]      12.34273340 [kJ/mol]
    Induction sSAPT0               -7.32860346 [mEh]      -4.59876810 [kcal/mol]     -19.24124574 [kJ/mol]
    Dispersion sSAPT0              -0.36115942 [mEh]      -0.22663096 [kcal/mol]      -0.94822393 [kJ/mol]
  Total sSAPT0                     23.26687103 [mEh]      14.60018200 [kcal/mol]      61.08716147 [kJ/mol]
  --------------------------------------------------------------------------------------------------------

*** Psi4 exiting successfully. Buy a developer a beer!
