                               Psi4 1.9 release

  ==> Input File <==

--------------------------------------------------------------------------
MEMORY 60 GB

molecule dimer {
0 1
O      0.000000     0.000000     0.000000
H      0.588538     0.756918     0.000000
H      0.588538    -0.756918     0.000000
--
1 1
Na     3.146000     0.000000     0.000000

units ang
no_reorient
no_com
symmetry c1
}

set {
basis        aug-cc-pVTZ
scf_type     df
}

energy("sapt2+")
--------------------------------------------------------------------------

  //              Dimer HF             //
    Molecular point group: c1
  Charge       = 1
  Multiplicity = 1
  Basis Set: AUG-CC-PVTZ
    Blend: AUG-CC-PVTZ
  Basis Set: (AUG-CC-PVTZ AUX)
    Blend: AUG-CC-PVTZ-JKFIT + DEF2-UNIVERSAL-JKFIT
  @DF-RHF Final Energy:  -237.72000943577356
    Total Energy =                       -237.7200094357735622
 Dipole X            :        -61.1572255           67.6202136            6.4629881
 Dipole Y            :         -0.0000000            0.0000000           -0.0000000
 Dipole Z            :          0.0000000            0.0000000            0.0000000
 Magnitude           :                                                    6.4629881
  //            Monomer A HF           //
    Molecular point group: c1
  Multiplicity = 1
  Basis Set: AUG-CC-PVTZ
    Blend: AUG-CC-PVTZ
  Basis Set: (AUG-CC-PVTZ AUX)
    Blend: AUG-CC-PVTZ-JKFIT + DEF2-UNIVERSAL-JKFIT
  @DF-RHF Final Energy:   -76.06050454863976
    Total Energy =                        -76.0605045486397557
  //            Monomer B HF           //
    Molecular point group: c1

    Geometry (in Angstrom), charge = 1, multiplicity = 1:

       Center              X                  Y                   Z               Mass
    ------------   -----------------  -----------------  -----------------  -----------------
      Gh(O)           0.000000000000     0.000000000000     0.000000000000    15.994914619570
      Gh(H)           0.588538000000     0.756918000000     0.000000000000     1.007825032230
      Gh(H)           0.588538000000    -0.756918000000     0.000000000000     1.007825032230
         NA           3.146000000000     0.000000000000     0.000000000000    22.989769282000

  Charge       = 1
  Multiplicity = 1
  Basis Set: AUG-CC-PVTZ
    Blend: AUG-CC-PVTZ
  Basis Set: (AUG-CC-PVTZ AUX)
    Blend: AUG-CC-PVTZ-JKFIT + DEF2-UNIVERSAL-JKFIT

    Orbital Energies [Eh]
    ---------------------

    Doubly Occupied:

       1A    -40.762996     2A     -3.074991     3A     -1.798256
       4A     -1.798164     5A     -1.798126

  @DF-RHF Final Energy:  -161.67603656199395

   => Energetics <=

    Nuclear Repulsion Energy =              0.0000000000000000
    One-Electron Energy =                -224.8870094540888829
    Two-Electron Energy =                  63.2109728920949365
    Total Energy =                       -161.6760365619939535
 Dipole X            :        -59.4515305           65.3958623            5.9443318
 Dipole Y            :         -0.0000000            0.0000000           -0.0000000
 Dipole Z            :         -0.0000000            0.0000000           -0.0000000
 Magnitude           :                                                    5.9443318

    SAPT Results
  --------------------------------------------------------------------------------------------------------
    Electrostatics                 18.75889318 [mEh]      11.77138319 [kcal/mol]      49.25146727 [kJ/mol]
      Elst10,r                     20.24800133 [mEh]      12.70581266 [kcal/mol]      53.16112018 [kJ/mol]
      Elst12,r                     -1.48910815 [mEh]      -0.93442947 [kcal/mol]      -3.90965291 [kJ/mol]

    Exchange                        0.86890722 [mEh]       0.54524751 [kcal/mol]       2.28131559 [kJ/mol]
      Exch10                        0.66769426 [mEh]       0.41898448 [kcal/mol]       1.75303105 [kJ/mol]
      Exch10(S^2)                   0.66755414 [mEh]       0.41889655 [kcal/mol]       1.75266316 [kJ/mol]
      Exch11(S^2)                  -0.00688962 [mEh]      -0.00432330 [kcal/mol]      -0.01808870 [kJ/mol]
      Exch12(S^2)                   0.20810258 [mEh]       0.13058634 [kcal/mol]       0.54637324 [kJ/mol]

    Induction                      -5.06422284 [mEh]      -3.17784781 [kcal/mol]     -13.29611523 [kJ/mol]
      Ind20,r                      -5.07228806 [mEh]      -3.18290881 [kcal/mol]     -13.31729047 [kJ/mol]
      Ind22                        -0.80784578 [mEh]      -0.50693088 [kcal/mol]      -2.12099881 [kJ/mol]
      Exch-Ind20,r                  0.80144693 [mEh]       0.50291554 [kcal/mol]       2.10419862 [kJ/mol]
      Exch-Ind22                    0.12764368 [mEh]       0.08009762 [kcal/mol]       0.33512844 [kJ/mol]
      delta HF,r (2)               -0.11317960 [mEh]      -0.07102127 [kcal/mol]      -0.29715301 [kJ/mol]

    Dispersion                     -0.16203338 [mEh]      -0.10167748 [kcal/mol]      -0.42541859 [kJ/mol]
      Disp20                       -0.13312499 [mEh]      -0.08353719 [kcal/mol]      -0.34951961 [kJ/mol]
      Disp21                       -0.01103282 [mEh]      -0.00692320 [kcal/mol]      -0.02896668 [kJ/mol]
      Disp22 (SDQ)                 -0.01073636 [mEh]      -0.00673717 [kcal/mol]      -0.02818831 [kJ/mol]
      Disp22 (T)                   -0.01184716 [mEh]      -0.00743421 [kcal/mol]      -0.03110471 [kJ/mol]
      Est. Disp22 (T)              -0.01416140 [mEh]      -0.00888641 [kcal/mol]      -0.03718075 [kJ/mol]
      Exch-Disp20                   0.00702219 [mEh]       0.00440649 [kcal/mol]       0.01843675 [kJ/mol]

  Total HF                         16.53167486 [mEh]      10.37378259 [kcal/mol]      43.40390637 [kJ/mol]
  Total SAPT0                      16.40557206 [mEh]      10.29465189 [kcal/mol]      43.07282351 [kJ/mol]
  Total SAPT2                      14.43747476 [mEh]       9.05965219 [kcal/mol]      37.90558477 [kJ/mol]
  Total SAPT2+                     14.40154418 [mEh]       9.03710541 [kcal/mol]      37.81124903 [kJ/mol]

  Special recipe for scaled SAPT0 (see Manual):
    Electrostatics sSAPT0          20.24800133 [mEh]      12.70581266 [kcal/mol]      53.16112018 [kJ/mol]
    Exchange sSAPT0                 0.66769426 [mEh]       0.41898448 [kcal/mol]       1.75303105 [kJ/mol]
    Induction sSAPT0               -4.38351596 [mEh]      -2.75069779 [kcal/mol]     -11.50891956 [kJ/mol]
    Dispersion sSAPT0              -0.12609838 [mEh]      -0.07912793 [kcal/mol]      -0.33107125 [kJ/mol]
  Total sSAPT0                     16.40608126 [mEh]      10.29497142 [kcal/mol]      43.07416042 [kJ/mol]
  --------------------------------------------------------------------------------------------------------

*** Psi4 exiting successfully. Buy a developer a beer!
