                               Psi4 1.9 release

  ==> Input File <==

--------------------------------------------------------------------------
MEMORY 60 GB

molecule dimer {
0 1
O      0.000000     0.000000     0.000000
H      0.588538     0.756918     0.000000
H      0.588538    -0.756918     0.000000
--
1 1
Na     4.840000     0.000000     0.000000

units ang
no_reorient
no_com
symmetry c1
}

set {
basis        aug-cc-pVTZ
scf_type     df
}

energy("sapt2+")
--------------------------------------------------------------------------

  //              Dimer HF             //
    Molecular point group: c1
  Charge       = 1
  Multiplicity = 1
  Basis Set: AUG-CC-PVTZ
    Blend: AUG-CC-PVTZ
  Basis Set: (AUG-CC-PVTZ AUX)
    Blend: AUG-CC-PVTZ-JKFIT + DEF2-UNIVERSAL-JKFIT
  @DF-RHF Final Energy:  -237.72810851026711
    Total Energy =                       -237.7281085102671057
 Dipole X            :        -93.0140110          102.8333702            9.8193592
 Dipole Y            :          0.0000000            0.0000000            0.0000000
 Dipole Z            :          0.0000000            0.0000000            0.0000000
 Magnitude           :                                                    9.8193592
  //            Monomer A HF           //
    Molecular point group: c1
  Multiplicity = 1
  Basis Set: AUG-CC-PVTZ
    Blend: AUG-CC-PVTZ
  Basis Set: (AUG-CC-PVTZ AUX)
    Blend: AUG-CC-PVTZ-JKFIT + DEF2-UNIVERSAL-JKFIT
  @DF-RHF Final Energy:   -76.06048746005955
    Total Energy =                        -76.0604874600595338
  //            Monomer B HF           //
    Molecular point group: c1

    Geometry (in Angstrom), charge = 1, multiplicity = 1:

       Center              X                  Y                   Z               Mass
    ------------   -----------------  -----------------  -----------------  -----------------
      Gh(O)           0.000000000000     0.000000000000     0.000000000000    15.994914619570
      Gh(H)           0.588538000000     0.756918000000     0.000000000000     1.007825032230
      Gh(H)           0.588538000000    -0.756918000000     0.000000000000     1.007825032230
         NA           4.840000000000     0.000000000000     0.000000000000    22.989769282000

  Charge       = 1
  Multiplicity = 1
  Basis Set: AUG-CC-PVTZ
    Blend: AUG-CC-PVTZ
  Basis Set: (AUG-CC-PVTZ AUX)
    Blend: AUG-CC-PVTZ-JKFIT + DEF2-UNIVERSAL-JKFIT

    Orbital Energies [Eh]
    ---------------------

    Doubly Occupied:

       1A    -40.763761     2A     -3.075345     3A     -1.798507
       4A     -1.798488     5A     -1.798487

  @DF-RHF Final Energy:  -161.67602522146518

   => Energetics <=

    Nuclear Repulsion Energy =              0.0000000000000000
    One-Electron Energy =                -224.8828762409391402
    Two-Electron Energy =                  63.2068510194739446
    Total Energy =                       -161.6760252214651814
 Dipole X            :        -91.4628641          100.6090189            9.1461548
 Dipole Y            :          0.0000000            0.0000000            0.0000000
 Dipole Z            :         -0.0000000            0.0000000           -0.0000000
 Magnitude           :                                                    9.1461548

    SAPT Results
  --------------------------------------------------------------------------------------------------------
    Electrostatics                  8.52149475 [mEh]       5.34731869 [kcal/mol]      22.37318139 [kJ/mol]
      Elst10,r                      9.13251891 [mEh]       5.73074214 [kcal/mol]      23.97742510 [kJ/mol]
      Elst12,r                     -0.61102416 [mEh]      -0.38342345 [kcal/mol]      -1.60424371 [kJ/mol]

    Exchange                        0.00111205 [mEh]       0.00069782 [kcal/mol]       0.00291968 [kJ/mol]
      Exch10                        0.00070777 [mEh]       0.00044413 [kcal/mol]       0.00185825 [kJ/mol]
      Exch10(S^2)                   0.00070777 [mEh]       0.00044413 [kcal/mol]       0.00185825 [kJ/mol]
      Exch11(S^2)                  -0.00000519 [mEh]      -0.00000325 [kcal/mol]      -0.00001362 [kJ/mol]
      Exch12(S^2)                   0.00040947 [mEh]       0.00025694 [kcal/mol]       0.00107505 [kJ/mol]

    Induction                      -0.81830283 [mEh]      -0.51349278 [kcal/mol]      -2.14845379 [kJ/mol]
      Ind20,r                      -0.70810093 [mEh]      -0.44434004 [kcal/mol]      -1.85911873 [kJ/mol]
      Ind22                        -0.08938521 [mEh]      -0.05609007 [kcal/mol]      -0.23468085 [kJ/mol]
      Exch-Ind20,r                  0.00109170 [mEh]       0.00068505 [kcal/mol]       0.00286625 [kJ/mol]
      Exch-Ind22                    0.00013781 [mEh]       0.00008648 [kcal/mol]       0.00036181 [kJ/mol]
      delta HF,r (2)               -0.02204619 [mEh]      -0.01383420 [kcal/mol]      -0.05788227 [kJ/mol]

    Dispersion                     -0.00814744 [mEh]      -0.00511260 [kcal/mol]      -0.02139110 [kJ/mol]
      Disp20                       -0.00653385 [mEh]      -0.00410006 [kcal/mol]      -0.01715463 [kJ/mol]
      Disp21                       -0.00036795 [mEh]      -0.00023089 [kcal/mol]      -0.00096604 [kJ/mol]
      Disp22 (SDQ)                 -0.00051440 [mEh]      -0.00032279 [kcal/mol]      -0.00135056 [kJ/mol]
      Disp22 (T)                   -0.00070115 [mEh]      -0.00043998 [kcal/mol]      -0.00184087 [kJ/mol]
      Est. Disp22 (T)              -0.00074074 [mEh]      -0.00046482 [kcal/mol]      -0.00194481 [kJ/mol]
      Exch-Disp20                   0.00000950 [mEh]       0.00000596 [kcal/mol]       0.00002495 [kJ/mol]

  Total HF                          8.40417126 [mEh]       5.27369708 [kcal/mol]      22.06514860 [kJ/mol]
  Total SAPT0                       8.39764690 [mEh]       5.26960299 [kcal/mol]      22.04801891 [kJ/mol]
  Total SAPT2                       7.69777962 [mEh]       4.83042964 [kcal/mol]      20.21051760 [kJ/mol]
  Total SAPT2+                      7.69615653 [mEh]       4.82941113 [kcal/mol]      20.20625619 [kJ/mol]

  Special recipe for scaled SAPT0 (see Manual):
    Electrostatics sSAPT0           9.13251891 [mEh]       5.73074214 [kcal/mol]      23.97742510 [kJ/mol]
    Exchange sSAPT0                 0.00070777 [mEh]       0.00044413 [kcal/mol]       0.00185825 [kJ/mol]
    Induction sSAPT0               -0.72905542 [mEh]      -0.45748919 [kcal/mol]      -1.91413475 [kJ/mol]
    Dispersion sSAPT0              -0.00652435 [mEh]      -0.00409409 [kcal/mol]      -0.01712969 [kJ/mol]
  Total sSAPT0                      8.39764690 [mEh]       5.26960299 [kcal/mol]      22.04801891 [kJ/mol]
  --------------------------------------------------------------------------------------------------------

*** Psi4 exiting successfully. Buy a developer a beer!
