                               Psi4 1.9 release

  ==> Input File <==

--------------------------------------------------------------------------
MEMORY 60 GB

molecule dimer {
0 1
O      0.000000     0.000000     0.000000
H      0.588538     0.756918     0.000000
H      0.588538    -0.756918     0.000000
--
1 1
Na     2.420000     0.000000     0.000000

units ang
no_reorient
no_com
symmetry c1
}

set {
basis        aug-cc-pVTZ
scf_type     df
}

energy("sapt2+")
--------------------------------------------------------------------------

  //              Dimer HF             //
    Molecular point group: c1
  Charge       = 1
  Multiplicity = 1
  Basis Set: AUG-CC-PVTZ
    Blend: AUG-CC-PVTZ
  Basis Set: (AUG-CC-PVTZ AUX)
    Blend: AUG-CC-PVTZ-JKFIT + DEF2-UNIVERSAL-JKFIT
  @DF-RHF Final Energy:  -237.70412173702493
    Total Energy =                       -237.7041217370249342
 Dipole X            :        -47.5106936           52.5288607            5.0181671
 Dipole Y            :         -0.0000000            0.0000000           -0.0000000
 Dipole Z            :         -0.0000000            0.0000000           -0.0000000
 Magnitude           :                                                    5.0181671
  //            Monomer A HF           //
    Molecular point group: c1
  Multiplicity = 1
  Basis Set: AUG-CC-PVTZ
    Blend: AUG-CC-PVTZ
  Basis Set: (AUG-CC-PVTZ AUX)
    Blend: AUG-CC-PVTZ-JKFIT + DEF2-UNIVERSAL-JKFIT
  @DF-RHF Final Energy:   -76.06052506163851
    Total Energy =                        -76.0605250616385149
  //            Monomer B HF           //
    Molecular point group: c1

    Geometry (in Angstrom), charge = 1, multiplicity = 1:

       Center              X                  Y                   Z               Mass
    ------------   -----------------  -----------------  -----------------  -----------------
      Gh(O)           0.000000000000     0.000000000000     0.000000000000    15.994914619570
      Gh(H)           0.588538000000     0.756918000000     0.000000000000     1.007825032230
      Gh(H)           0.588538000000    -0.756918000000     0.000000000000     1.007825032230
         NA           2.420000000000     0.000000000000     0.000000000000    22.989769282000

  Charge       = 1
  Multiplicity = 1
  Basis Set: AUG-CC-PVTZ
    Blend: AUG-CC-PVTZ
  Basis Set: (AUG-CC-PVTZ AUX)
    Blend: AUG-CC-PVTZ-JKFIT + DEF2-UNIVERSAL-JKFIT

    Orbital Energies [Eh]
    ---------------------

    Doubly Occupied:

       1A    -40.762466     2A     -3.074747     3A     -1.798024
       4A     -1.798006     5A     -1.797872

  @DF-RHF Final Energy:  -161.67604930453820

   => Energetics <=

    Nuclear Repulsion Energy =              0.0000000000000000
    One-Electron Energy =                -224.8898696395915522
    Two-Electron Energy =                  63.2138203350533701
    Total Energy =                       -161.6760493045381963
 Dipole X            :        -45.7321387           50.3045095            4.5723707
 Dipole Y            :         -0.0000000            0.0000000           -0.0000000
 Dipole Z            :          0.0000000            0.0000000            0.0000000
 Magnitude           :                                                    4.5723707

    SAPT Results
  --------------------------------------------------------------------------------------------------------
    Electrostatics                 26.26530185 [mEh]      16.48172574 [kcal/mol]      68.95954051 [kJ/mol]
      Elst10,r                     29.18333960 [mEh]      18.31282208 [kcal/mol]      76.62084758 [kJ/mol]
      Elst12,r                     -2.91803775 [mEh]      -1.83109633 [kcal/mol]      -7.66130706 [kJ/mol]

    Exchange                       14.53566130 [mEh]       9.12126518 [kcal/mol]      38.16337349 [kJ/mol]
      Exch10                       12.48872115 [mEh]       7.83679084 [kcal/mol]      32.78913287 [kJ/mol]
      Exch10(S^2)                  12.44806999 [mEh]       7.81128185 [kcal/mol]      32.68240325 [kJ/mol]
      Exch11(S^2)                  -0.19647799 [mEh]      -0.12329180 [kcal/mol]      -0.51585289 [kJ/mol]
      Exch12(S^2)                   2.24341814 [mEh]       1.40776614 [kcal/mol]       5.89009352 [kJ/mol]

    Induction                     -11.06381286 [mEh]      -6.94264738 [kcal/mol]     -29.04803665 [kJ/mol]
      Ind20,r                     -23.88043316 [mEh]     -14.98519805 [kcal/mol]     -62.69806863 [kJ/mol]
      Ind22                        -4.28340848 [mEh]      -2.68787940 [kcal/mol]     -11.24608742 [kJ/mol]
      Exch-Ind20,r                 13.59782216 [mEh]       8.53276223 [kcal/mol]      35.70107717 [kJ/mol]
      Exch-Ind22                    2.43902723 [mEh]       1.53051269 [kcal/mol]       6.40366511 [kJ/mol]
      delta HF,r (2)                1.06317939 [mEh]       0.66715514 [kcal/mol]       2.79137711 [kJ/mol]

    Dispersion                     -0.84688450 [mEh]      -0.53142805 [kcal/mol]      -2.22349495 [kJ/mol]
      Disp20                       -0.79076060 [mEh]      -0.49620977 [kcal/mol]      -2.07614166 [kJ/mol]
      Disp21                       -0.05945988 [mEh]      -0.03731164 [kcal/mol]      -0.15611189 [kJ/mol]
      Disp22 (SDQ)                 -0.05102268 [mEh]      -0.03201721 [kcal/mol]      -0.13396002 [kJ/mol]
      Disp22 (T)                   -0.06562277 [mEh]      -0.04117891 [kcal/mol]      -0.17229255 [kJ/mol]
      Est. Disp22 (T)              -0.08103683 [mEh]      -0.05085138 [kcal/mol]      -0.21276218 [kJ/mol]
      Exch-Disp20                   0.13539549 [mEh]       0.08496195 [kcal/mol]       0.35548080 [kJ/mol]

  Total HF                         32.45262915 [mEh]      20.36433224 [kcal/mol]      85.20436610 [kJ/mol]
  Total SAPT0                      31.79726404 [mEh]      19.95308443 [kcal/mol]      83.48370524 [kJ/mol]
  Total SAPT2                      29.08178519 [mEh]      18.24909572 [kcal/mol]      76.35421650 [kJ/mol]
  Total SAPT2+                     28.89026580 [mEh]      18.12891549 [kcal/mol]      75.85138241 [kJ/mol]

  Special recipe for scaled SAPT0 (see Manual):
    Electrostatics sSAPT0          29.18333960 [mEh]      18.31282208 [kcal/mol]      76.62084758 [kJ/mol]
    Exchange sSAPT0                12.48872115 [mEh]       7.83679084 [kcal/mol]      32.78913287 [kJ/mol]
    Induction sSAPT0               -9.08577850 [mEh]      -5.70141208 [kcal/mol]     -23.85470815 [kJ/mol]
    Dispersion sSAPT0              -0.65403431 [mEh]      -0.41041272 [kcal/mol]      -1.71716684 [kJ/mol]
  Total sSAPT0                     31.93224796 [mEh]      20.03778811 [kcal/mol]      83.83810546 [kJ/mol]
  --------------------------------------------------------------------------------------------------------

*** Psi4 exiting successfully. Buy a developer a beer!
