                               Psi4 1.9 release

  ==> Input File <==

--------------------------------------------------------------------------
MEMORY 60 GB

molecule dimer {
0 1
O      0.000000     0.000000     0.000000
H      0.588538     0.756918     0.000000
H      0.588538    -0.756918     0.000000
--
1 1
K      3.614000     0.000000     0.000000

units ang
no_reorient
no_com
symmetry c1
}

set {
basis        aug-cc-pVTZ
scf_type     df
}

energy("sapt2+")
--------------------------------------------------------------------------

  //              Dimer HF             //
    Molecular point group: c1
  Charge       = 1
  Multiplicity = 1
  Basis Set: AUG-CC-PVTZ
    Blend: AUG-CC-PVTZ
  Basis Set: (AUG-CC-PVTZ AUX)
    Blend: AUG-CC-PVTZ-JKFIT + DEF2-UNIVERSAL-JKFIT
  @DF-RHF Final Energy:  -675.06416753647250
    Total Energy =                       -675.0641675364724961
 Dipole X            :       -124.5551565          131.9842854            7.4291289
 Dipole Y            :          0.0000000            0.0000000            0.0000000
 Dipole Z            :          0.0000000            0.0000000            0.0000000
 Magnitude           :                                                    7.4291289
  //            Monomer A HF           //
    Molecular point group: c1
  Multiplicity = 1
  Basis Set: AUG-CC-PVTZ
    Blend: AUG-CC-PVTZ
  Basis Set: (AUG-CC-PVTZ AUX)
    Blend: AUG-CC-PVTZ-JKFIT + DEF2-UNIVERSAL-JKFIT
  @DF-RHF Final Energy:   -76.06049888232243
    Total Energy =                        -76.0604988823224346
  //            Monomer B HF           //
    Molecular point group: c1

    Geometry (in Angstrom), charge = 1, multiplicity = 1:

       Center              X                  Y                   Z               Mass
    ------------   -----------------  -----------------  -----------------  -----------------
      Gh(O)           0.000000000000     0.000000000000     0.000000000000    15.994914619570
      Gh(H)           0.588538000000     0.756918000000     0.000000000000     1.007825032230
      Gh(H)           0.588538000000    -0.756918000000     0.000000000000     1.007825032230
         K            3.614000000000     0.000000000000     0.000000000000    38.963706486400

  Charge       = 1
  Multiplicity = 1
  Basis Set: AUG-CC-PVTZ
    Blend: AUG-CC-PVTZ
  Basis Set: (AUG-CC-PVTZ AUX)
    Blend: AUG-CC-PVTZ-JKFIT + DEF2-UNIVERSAL-JKFIT

    Orbital Energies [Eh]
    ---------------------

    Doubly Occupied:

       1A   -133.753735     2A    -14.709189     3A    -11.739252
       4A    -11.739248     5A    -11.739248     6A     -1.964363
       7A     -1.170967     8A     -1.170930     9A     -1.170925

  @DF-RHF Final Energy:  -599.01750751449845

   => Energetics <=

    Nuclear Repulsion Energy =              0.0000000000000000
    One-Electron Energy =                -819.7193006755002216
    Two-Electron Energy =                 220.7017931610017740
    Total Energy =                       -599.0175075144984476
 Dipole X            :       -122.9308520          129.7599341            6.8290822
 Dipole Y            :          0.0000000            0.0000000            0.0000000
 Dipole Z            :          0.0000000            0.0000000            0.0000000
 Magnitude           :                                                    6.8290822

    SAPT Results
  --------------------------------------------------------------------------------------------------------
    Electrostatics                 14.64923896 [mEh]       9.19253623 [kcal/mol]      38.46157158 [kJ/mol]
      Elst10,r                     15.74083893 [mEh]       9.87752555 [kcal/mol]      41.32756692 [kJ/mol]
      Elst12,r                     -1.09159997 [mEh]      -0.68498933 [kcal/mol]      -2.86599534 [kJ/mol]

    Exchange                        0.73948613 [mEh]       0.46403455 [kcal/mol]       1.94152058 [kJ/mol]
      Exch10                        0.57314970 [mEh]       0.35965687 [kcal/mol]       1.50480434 [kJ/mol]
      Exch10(S^2)                   0.57294659 [mEh]       0.35952941 [kcal/mol]       1.50427107 [kJ/mol]
      Exch11(S^2)                   0.00514775 [mEh]       0.00323026 [kcal/mol]       0.01351542 [kJ/mol]
      Exch12(S^2)                   0.16118868 [mEh]       0.10114742 [kcal/mol]       0.42320082 [kJ/mol]

    Induction                      -2.88492944 [mEh]      -1.81032055 [kcal/mol]      -7.57438119 [kJ/mol]
      Ind20,r                      -2.87693163 [mEh]      -1.80530185 [kcal/mol]      -7.55338296 [kJ/mol]
      Ind22                        -0.48945365 [mEh]      -0.30713680 [kcal/mol]      -1.28506039 [kJ/mol]
      Exch-Ind20,r                  0.46818489 [mEh]       0.29379046 [kcal/mol]       1.22921927 [kJ/mol]
      Exch-Ind22                    0.07965250 [mEh]       0.04998270 [kcal/mol]       0.20912762 [kJ/mol]
      delta HF,r (2)               -0.06638155 [mEh]      -0.04165505 [kcal/mol]      -0.17428473 [kJ/mol]

    Dispersion                     -0.57499739 [mEh]      -0.36081631 [kcal/mol]      -1.50965545 [kJ/mol]
      Disp20                       -0.57769890 [mEh]      -0.36251153 [kcal/mol]      -1.51674825 [kJ/mol]
      Disp21                        0.07009571 [mEh]       0.04398572 [kcal/mol]       0.18403625 [kJ/mol]
      Disp22 (SDQ)                 -0.01566108 [mEh]      -0.00982747 [kcal/mol]      -0.04111815 [kJ/mol]
      Disp22 (T)                   -0.06724447 [mEh]      -0.04219654 [kcal/mol]      -0.17655033 [kJ/mol]
      Est. Disp22 (T)              -0.07218411 [mEh]      -0.04529621 [kcal/mol]      -0.18951935 [kJ/mol]
      Exch-Disp20                   0.02045099 [mEh]       0.01283319 [kcal/mol]       0.05369406 [kJ/mol]

  Total HF                         13.83886035 [mEh]       8.68401597 [kcal/mol]      36.33392284 [kJ/mol]
  Total SAPT0                      13.28161244 [mEh]       8.33433763 [kcal/mol]      34.87086864 [kJ/mol]
  Total SAPT2                      11.94654774 [mEh]       7.49657189 [kcal/mol]      31.36565677 [kJ/mol]
  Total SAPT2+                     11.92879826 [mEh]       7.48543392 [kcal/mol]      31.31905552 [kJ/mol]

  Special recipe for scaled SAPT0 (see Manual):
    Electrostatics sSAPT0          15.74083893 [mEh]       9.87752555 [kcal/mol]      41.32756692 [kJ/mol]
    Exchange sSAPT0                 0.57314970 [mEh]       0.35965687 [kcal/mol]       1.50480434 [kJ/mol]
    Induction sSAPT0               -2.47463019 [mEh]      -1.55285389 [kcal/mol]      -6.49714066 [kJ/mol]
    Dispersion sSAPT0              -0.55722616 [mEh]      -0.34966469 [kcal/mol]      -1.46299707 [kJ/mol]
  Total sSAPT0                     13.28213229 [mEh]       8.33466384 [kcal/mol]      34.87223352 [kJ/mol]
  --------------------------------------------------------------------------------------------------------

*** Psi4 exiting successfully. Buy a developer a beer!
