                               Psi4 1.9 release

  ==> Input File <==

--------------------------------------------------------------------------
MEMORY 60 GB

molecule dimer {
0 1
O      0.000000     0.000000     0.000000
H      0.588538     0.756918     0.000000
H      0.588538    -0.756918     0.000000
--
1 1
K      4.170000     0.000000     0.000000

units ang
no_reorient
no_com
symmetry c1
}

set {
basis        aug-cc-pVTZ
scf_type     df
}

energy("sapt2+")
--------------------------------------------------------------------------

  //              Dimer HF             //
    Molecular point group: c1
  Charge       = 1
  Multiplicity = 1
  Basis Set: AUG-CC-PVTZ
    Blend: AUG-CC-PVTZ
  Basis Set: (AUG-CC-PVTZ AUX)
    Blend: AUG-CC-PVTZ-JKFIT + DEF2-UNIVERSAL-JKFIT
  @DF-RHF Final Energy:  -675.06719167695485
    Total Energy =                       -675.0671916769548488
 Dipole X            :       -143.4239450          151.9473522            8.5234072
 Dipole Y            :         -0.0000000            0.0000000           -0.0000000
 Dipole Z            :          0.0000000            0.0000000            0.0000000
 Magnitude           :                                                    8.5234072
  //            Monomer A HF           //
    Molecular point group: c1
  Multiplicity = 1
  Basis Set: AUG-CC-PVTZ
    Blend: AUG-CC-PVTZ
  Basis Set: (AUG-CC-PVTZ AUX)
    Blend: AUG-CC-PVTZ-JKFIT + DEF2-UNIVERSAL-JKFIT
  @DF-RHF Final Energy:   -76.06049169756264
    Total Energy =                        -76.0604916975626395
  //            Monomer B HF           //
    Molecular point group: c1

    Geometry (in Angstrom), charge = 1, multiplicity = 1:

       Center              X                  Y                   Z               Mass
    ------------   -----------------  -----------------  -----------------  -----------------
      Gh(O)           0.000000000000     0.000000000000     0.000000000000    15.994914619570
      Gh(H)           0.588538000000     0.756918000000     0.000000000000     1.007825032230
      Gh(H)           0.588538000000    -0.756918000000     0.000000000000     1.007825032230
         K            4.170000000000     0.000000000000     0.000000000000    38.963706486400

  Charge       = 1
  Multiplicity = 1
  Basis Set: AUG-CC-PVTZ
    Blend: AUG-CC-PVTZ
  Basis Set: (AUG-CC-PVTZ AUX)
    Blend: AUG-CC-PVTZ-JKFIT + DEF2-UNIVERSAL-JKFIT

    Orbital Energies [Eh]
    ---------------------

    Doubly Occupied:

       1A   -133.753788     2A    -14.709231     3A    -11.739295
       4A    -11.739291     5A    -11.739291     6A     -1.964382
       7A     -1.170979     8A     -1.170946     9A     -1.170942

  @DF-RHF Final Energy:  -599.01750718585197

   => Energetics <=

    Nuclear Repulsion Energy =              0.0000000000000000
    One-Electron Energy =                -819.7187238273245384
    Two-Electron Energy =                 220.7012166414726266
    Total Energy =                       -599.0175071858518550
 Dipole X            :       -141.8431986          149.7230009            7.8798023
 Dipole Y            :          0.0000000            0.0000000            0.0000000
 Dipole Z            :          0.0000000            0.0000000            0.0000000
 Magnitude           :                                                    7.8798023

    SAPT Results
  --------------------------------------------------------------------------------------------------------
    Electrostatics                 11.32115211 [mEh]       7.10413020 [kcal/mol]      29.72368077 [kJ/mol]
      Elst10,r                     12.12361227 [mEh]       7.60768156 [kcal/mol]      31.83053964 [kJ/mol]
      Elst12,r                     -0.80246017 [mEh]      -0.50355136 [kcal/mol]      -2.10685888 [kJ/mol]

    Exchange                        0.09308651 [mEh]       0.05841267 [kcal/mol]       0.24439861 [kJ/mol]
      Exch10                        0.06758773 [mEh]       0.04241194 [kcal/mol]       0.17745155 [kJ/mol]
      Exch10(S^2)                   0.06758435 [mEh]       0.04240982 [kcal/mol]       0.17744268 [kJ/mol]
      Exch11(S^2)                   0.00093746 [mEh]       0.00058826 [kcal/mol]       0.00246130 [kJ/mol]
      Exch12(S^2)                   0.02456133 [mEh]       0.01541247 [kcal/mol]       0.06448576 [kJ/mol]

    Induction                      -1.57223744 [mEh]      -0.98659389 [kcal/mol]      -4.12790883 [kJ/mol]
      Ind20,r                      -1.39705518 [mEh]      -0.87666536 [kcal/mol]      -3.66796787 [kJ/mol]
      Ind22                        -0.19598068 [mEh]      -0.12297973 [kcal/mol]      -0.51454721 [kJ/mol]
      Exch-Ind20,r                  0.05515193 [mEh]       0.03460836 [kcal/mol]       0.14480138 [kJ/mol]
      Exch-Ind22                    0.00773678 [mEh]       0.00485490 [kcal/mol]       0.02031292 [kJ/mol]
      delta HF,r (2)               -0.04209029 [mEh]      -0.02641206 [kcal/mol]      -0.11050805 [kJ/mol]

    Dispersion                     -0.21907488 [mEh]      -0.13747156 [kcal/mol]      -0.57518101 [kJ/mol]
      Disp20                       -0.21788258 [mEh]      -0.13672338 [kcal/mol]      -0.57205064 [kJ/mol]
      Disp21                        0.03043769 [mEh]       0.01909994 [kcal/mol]       0.07991414 [kJ/mol]
      Disp22 (SDQ)                 -0.00648120 [mEh]      -0.00406701 [kcal/mol]      -0.01701638 [kJ/mol]
      Disp22 (T)                   -0.02630932 [mEh]      -0.01650935 [kcal/mol]      -0.06907511 [kJ/mol]
      Est. Disp22 (T)              -0.02774771 [mEh]      -0.01741195 [kcal/mol]      -0.07285160 [kJ/mol]
      Exch-Disp20                   0.00259892 [mEh]       0.00163085 [kcal/mol]       0.00682347 [kJ/mol]

  Total HF                         10.80720646 [mEh]       6.78162444 [kcal/mol]      28.37431665 [kJ/mol]
  Total SAPT0                      10.59192280 [mEh]       6.64653190 [kcal/mol]      27.80908948 [kJ/mol]
  Total SAPT2                       9.62671752 [mEh]       6.04085645 [kcal/mol]      25.27494337 [kJ/mol]
  Total SAPT2+                      9.62292630 [mEh]       6.03847742 [kcal/mol]      25.26498953 [kJ/mol]

  Special recipe for scaled SAPT0 (see Manual):
    Electrostatics sSAPT0          12.12361227 [mEh]       7.60768156 [kcal/mol]      31.83053964 [kJ/mol]
    Exchange sSAPT0                 0.06758773 [mEh]       0.04241194 [kcal/mol]       0.17745155 [kJ/mol]
    Induction sSAPT0               -1.38398527 [mEh]      -0.86846387 [kcal/mol]      -3.63365283 [kJ/mol]
    Dispersion sSAPT0              -0.21528327 [mEh]      -0.13509229 [kcal/mol]      -0.56522615 [kJ/mol]
  Total sSAPT0                     10.59193146 [mEh]       6.64653734 [kcal/mol]      27.80911222 [kJ/mol]
  --------------------------------------------------------------------------------------------------------

*** Psi4 exiting successfully. Buy a developer a beer!
