                               Psi4 1.9 release

  ==> Input File <==

--------------------------------------------------------------------------
MEMORY 60 GB

molecule dimer {
0 1
O      0.000000     0.000000     0.000000
H      0.588538     0.756918     0.000000
H      0.588538    -0.756918     0.000000
--
1 1
K      3.336000     0.000000     0.000000

units ang
no_reorient
no_com
symmetry c1
}

set {
basis        aug-cc-pVTZ
scf_type     df
}

energy("sapt2+")
--------------------------------------------------------------------------

  //              Dimer HF             //
    Molecular point group: c1
  Charge       = 1
  Multiplicity = 1
  Basis Set: AUG-CC-PVTZ
    Blend: AUG-CC-PVTZ
  Basis Set: (AUG-CC-PVTZ AUX)
    Blend: AUG-CC-PVTZ-JKFIT + DEF2-UNIVERSAL-JKFIT
  @DF-RHF Final Energy:  -675.06169451288270
    Total Energy =                       -675.0616945128826956
 Dipole X            :       -115.1232988          122.0027520            6.8794532
 Dipole Y            :         -0.0000000            0.0000000           -0.0000000
 Dipole Z            :         -0.0000000            0.0000000           -0.0000000
 Magnitude           :                                                    6.8794532
  //            Monomer A HF           //
    Molecular point group: c1
  Multiplicity = 1
  Basis Set: AUG-CC-PVTZ
    Blend: AUG-CC-PVTZ
  Basis Set: (AUG-CC-PVTZ AUX)
    Blend: AUG-CC-PVTZ-JKFIT + DEF2-UNIVERSAL-JKFIT
  @DF-RHF Final Energy:   -76.06050198187765
    Total Energy =                        -76.0605019818776356
  //            Monomer B HF           //
    Molecular point group: c1

    Geometry (in Angstrom), charge = 1, multiplicity = 1:

       Center              X                  Y                   Z               Mass
    ------------   -----------------  -----------------  -----------------  -----------------
      Gh(O)           0.000000000000     0.000000000000     0.000000000000    15.994914619570
      Gh(H)           0.588538000000     0.756918000000     0.000000000000     1.007825032230
      Gh(H)           0.588538000000    -0.756918000000     0.000000000000     1.007825032230
         K            3.336000000000     0.000000000000     0.000000000000    38.963706486400

  Charge       = 1
  Multiplicity = 1
  Basis Set: AUG-CC-PVTZ
    Blend: AUG-CC-PVTZ
  Basis Set: (AUG-CC-PVTZ AUX)
    Blend: AUG-CC-PVTZ-JKFIT + DEF2-UNIVERSAL-JKFIT

    Orbital Energies [Eh]
    ---------------------

    Doubly Occupied:

       1A   -133.753710     2A    -14.709168     3A    -11.739231
       4A    -11.739227     5A    -11.739226     6A     -1.964352
       7A     -1.170959     8A     -1.170920     9A     -1.170913

  @DF-RHF Final Energy:  -599.01750783234013

   => Energetics <=

    Nuclear Repulsion Energy =              0.0000000000000000
    One-Electron Energy =                -819.7196052871511256
    Two-Electron Energy =                 220.7020974548109109
    Total Energy =                       -599.0175078323402431
 Dipole X            :       -113.4746845          119.7784007            6.3037162
 Dipole Y            :         -0.0000000            0.0000000           -0.0000000
 Dipole Z            :          0.0000000            0.0000000            0.0000000
 Magnitude           :                                                    6.3037162

    SAPT Results
  --------------------------------------------------------------------------------------------------------
    Electrostatics                 16.68582722 [mEh]      10.47051466 [kcal/mol]      43.80863334 [kJ/mol]
      Elst10,r                     18.01241317 [mEh]      11.30295991 [kcal/mol]      47.29158426 [kJ/mol]
      Elst12,r                     -1.32658594 [mEh]      -0.83244525 [kcal/mol]      -3.48295092 [kJ/mol]

    Exchange                        2.06497714 [mEh]       1.29579272 [kcal/mol]       5.42159675 [kJ/mol]
      Exch10                        1.66187589 [mEh]       1.04284286 [kcal/mol]       4.36325454 [kJ/mol]
      Exch10(S^2)                   1.66033099 [mEh]       1.04187342 [kcal/mol]       4.35919840 [kJ/mol]
      Exch11(S^2)                   0.00977485 [mEh]       0.00613381 [kcal/mol]       0.02566386 [kJ/mol]
      Exch12(S^2)                   0.39332641 [mEh]       0.24681605 [kcal/mol]       1.03267834 [kJ/mol]

    Induction                      -3.99603767 [mEh]      -2.50755149 [kcal/mol]     -10.49159544 [kJ/mol]
      Ind20,r                      -4.66439490 [mEh]      -2.92695199 [kcal/mol]     -12.24636713 [kJ/mol]
      Ind22                        -0.90435179 [mEh]      -0.56748932 [kcal/mol]      -2.37437530 [kJ/mol]
      Exch-Ind20,r                  1.37866855 [mEh]       0.86512758 [kcal/mol]       3.61969379 [kJ/mol]
      Exch-Ind22                    0.26730185 [mEh]       0.16773444 [kcal/mol]       0.70180090 [kJ/mol]
      delta HF,r (2)               -0.07326137 [mEh]      -0.04597220 [kcal/mol]      -0.19234770 [kJ/mol]

    Dispersion                     -0.98175219 [mEh]      -0.61605880 [kcal/mol]      -2.57759002 [kJ/mol]
      Disp20                       -1.00118845 [mEh]      -0.62825524 [kcal/mol]      -2.62861991 [kJ/mol]
      Disp21                        0.10906590 [mEh]       0.06843988 [kcal/mol]       0.28635247 [kJ/mol]
      Disp22 (SDQ)                 -0.02354862 [mEh]      -0.01477698 [kcal/mol]      -0.06182689 [kJ/mol]
      Disp22 (T)                   -0.11341592 [mEh]      -0.07116956 [kcal/mol]      -0.29777346 [kJ/mol]
      Est. Disp22 (T)              -0.12347093 [mEh]      -0.07747918 [kcal/mol]      -0.32417288 [kJ/mol]
      Exch-Disp20                   0.05738991 [mEh]       0.03601271 [kcal/mol]       0.15067719 [kJ/mol]

  Total HF                         16.31530134 [mEh]      10.23800616 [kcal/mol]      42.83581775 [kJ/mol]
  Total SAPT0                      15.37150280 [mEh]       9.64576363 [kcal/mol]      40.35787503 [kJ/mol]
  Total SAPT2                      13.81096816 [mEh]       8.66651337 [kcal/mol]      36.26069192 [kJ/mol]
  Total SAPT2+                     13.77301451 [mEh]       8.64269709 [kcal/mol]      36.16104462 [kJ/mol]

  Special recipe for scaled SAPT0 (see Manual):
    Electrostatics sSAPT0          18.01241317 [mEh]      11.30295991 [kcal/mol]      47.29158426 [kJ/mol]
    Exchange sSAPT0                 1.66187589 [mEh]       1.04284286 [kcal/mol]       4.36325454 [kJ/mol]
    Induction sSAPT0               -3.35513567 [mEh]      -2.10537942 [kcal/mol]      -8.80890750 [kJ/mol]
    Dispersion sSAPT0              -0.94363819 [mEh]      -0.59214190 [kcal/mol]      -2.47752173 [kJ/mol]
  Total sSAPT0                     15.37551519 [mEh]       9.64828145 [kcal/mol]      40.36840958 [kJ/mol]
  --------------------------------------------------------------------------------------------------------

*** Psi4 exiting successfully. Buy a developer a beer!
