                               Psi4 1.9 release

  ==> Input File <==

--------------------------------------------------------------------------
MEMORY 60 GB

molecule dimer {
0 1
O      0.000000     0.000000     0.000000
H      0.588538     0.756918     0.000000
H      0.588538    -0.756918     0.000000
--
1 1
K      5.560000     0.000000     0.000000

units ang
no_reorient
no_com
symmetry c1
}

set {
basis        aug-cc-pVTZ
scf_type     df
}

energy("sapt2+")
--------------------------------------------------------------------------

  //              Dimer HF             //
    Molecular point group: c1
  Charge       = 1
  Multiplicity = 1
  Basis Set: AUG-CC-PVTZ
    Blend: AUG-CC-PVTZ
  Basis Set: (AUG-CC-PVTZ AUX)
    Blend: AUG-CC-PVTZ-JKFIT + DEF2-UNIVERSAL-JKFIT
  @DF-RHF Final Energy:  -675.07141610847884
    Total Energy =                       -675.0714161084788429
 Dipole X            :       -190.6415470          201.8550192           11.2134722
 Dipole Y            :         -0.0000000            0.0000000           -0.0000000
 Dipole Z            :         -0.0000000            0.0000000           -0.0000000
 Magnitude           :                                                   11.2134722
  //            Monomer A HF           //
    Molecular point group: c1
  Multiplicity = 1
  Basis Set: AUG-CC-PVTZ
    Blend: AUG-CC-PVTZ
  Basis Set: (AUG-CC-PVTZ AUX)
    Blend: AUG-CC-PVTZ-JKFIT + DEF2-UNIVERSAL-JKFIT
  @DF-RHF Final Energy:   -76.06048587219186
    Total Energy =                        -76.0604858721918617
  //            Monomer B HF           //
    Molecular point group: c1

    Geometry (in Angstrom), charge = 1, multiplicity = 1:

       Center              X                  Y                   Z               Mass
    ------------   -----------------  -----------------  -----------------  -----------------
      Gh(O)           0.000000000000     0.000000000000     0.000000000000    15.994914619570
      Gh(H)           0.588538000000     0.756918000000     0.000000000000     1.007825032230
      Gh(H)           0.588538000000    -0.756918000000     0.000000000000     1.007825032230
         K            5.560000000000     0.000000000000     0.000000000000    38.963706486400

  Charge       = 1
  Multiplicity = 1
  Basis Set: AUG-CC-PVTZ
    Blend: AUG-CC-PVTZ
  Basis Set: (AUG-CC-PVTZ AUX)
    Blend: AUG-CC-PVTZ-JKFIT + DEF2-UNIVERSAL-JKFIT

    Orbital Energies [Eh]
    ---------------------

    Doubly Occupied:

       1A   -133.753955     2A    -14.709368     3A    -11.739429
       4A    -11.739427     5A    -11.739427     6A     -1.964447
       7A     -1.171008     8A     -1.171001     9A     -1.171001

  @DF-RHF Final Energy:  -599.01750603821608

   => Energetics <=

    Nuclear Repulsion Energy =              0.0000000000000000
    One-Electron Energy =                -819.7168847246159658
    Two-Electron Energy =                 220.6993786863998821
    Total Energy =                       -599.0175060382160837
 Dipole X            :       -189.1238222          199.6306679           10.5068457
 Dipole Y            :          0.0000000            0.0000000            0.0000000
 Dipole Z            :         -0.0000000            0.0000000           -0.0000000
 Magnitude           :                                                   10.5068457

    SAPT Results
  --------------------------------------------------------------------------------------------------------
    Electrostatics                  6.52541970 [mEh]       4.09476268 [kcal/mol]      17.13248707 [kJ/mol]
      Elst10,r                      6.98004717 [mEh]       4.38004573 [kcal/mol]      18.32611133 [kJ/mol]
      Elst12,r                     -0.45462747 [mEh]      -0.28528305 [kcal/mol]      -1.19362426 [kJ/mol]

    Exchange                        0.00021926 [mEh]       0.00013759 [kcal/mol]       0.00057566 [kJ/mol]
      Exch10                        0.00025459 [mEh]       0.00015976 [kcal/mol]       0.00066842 [kJ/mol]
      Exch10(S^2)                   0.00025459 [mEh]       0.00015976 [kcal/mol]       0.00066842 [kJ/mol]
      Exch11(S^2)                   0.00000253 [mEh]       0.00000159 [kcal/mol]       0.00000665 [kJ/mol]
      Exch12(S^2)                  -0.00003786 [mEh]      -0.00002376 [kcal/mol]      -0.00009941 [kJ/mol]

    Induction                      -0.45369958 [mEh]      -0.28470078 [kcal/mol]      -1.19118807 [kJ/mol]
      Ind20,r                      -0.39852107 [mEh]      -0.25007575 [kcal/mol]      -1.04631693 [kJ/mol]
      Ind22                        -0.04923062 [mEh]      -0.03089268 [kcal/mol]      -0.12925497 [kJ/mol]
      Exch-Ind20,r                  0.00024994 [mEh]       0.00015684 [kcal/mol]       0.00065621 [kJ/mol]
      Exch-Ind22                    0.00003088 [mEh]       0.00001937 [kcal/mol]       0.00008106 [kJ/mol]
      delta HF,r (2)               -0.00622870 [mEh]      -0.00390857 [kcal/mol]      -0.01635345 [kJ/mol]

    Dispersion                     -0.03119946 [mEh]      -0.01957796 [kcal/mol]      -0.08191417 [kJ/mol]
      Disp20                       -0.03187069 [mEh]      -0.01999916 [kcal/mol]      -0.08367648 [kJ/mol]
      Disp21                        0.00549210 [mEh]       0.00344634 [kcal/mol]       0.01441950 [kJ/mol]
      Disp22 (SDQ)                 -0.00078753 [mEh]      -0.00049418 [kcal/mol]      -0.00206766 [kJ/mol]
      Disp22 (T)                   -0.00396003 [mEh]      -0.00248496 [kcal/mol]      -0.01039706 [kJ/mol]
      Est. Disp22 (T)              -0.00404522 [mEh]      -0.00253841 [kcal/mol]      -0.01062071 [kJ/mol]
      Exch-Disp20                   0.00001188 [mEh]       0.00000745 [kcal/mol]       0.00003118 [kJ/mol]

  Total HF                          6.57580193 [mEh]       4.12637801 [kcal/mol]      17.26476559 [kJ/mol]
  Total SAPT0                       6.54394312 [mEh]       4.10638630 [kcal/mol]      17.18112029 [kJ/mol]
  Total SAPT2                       6.04008057 [mEh]       3.79020778 [kcal/mol]      15.85822936 [kJ/mol]
  Total SAPT2+                      6.04073992 [mEh]       3.79062153 [kcal/mol]      15.85996049 [kJ/mol]

  Special recipe for scaled SAPT0 (see Manual):
    Electrostatics sSAPT0           6.98004717 [mEh]       4.38004573 [kcal/mol]      18.32611133 [kJ/mol]
    Exchange sSAPT0                 0.00025459 [mEh]       0.00015976 [kcal/mol]       0.00066842 [kJ/mol]
    Induction sSAPT0               -0.40449983 [mEh]      -0.25382748 [kcal/mol]      -1.06201416 [kJ/mol]
    Dispersion sSAPT0              -0.03185881 [mEh]      -0.01999171 [kcal/mol]      -0.08364530 [kJ/mol]
  Total sSAPT0                      6.54394312 [mEh]       4.10638630 [kcal/mol]      17.18112029 [kJ/mol]
  --------------------------------------------------------------------------------------------------------

*** Psi4 exiting successfully. Buy a developer a beer!
