                               Psi4 1.9 release

  ==> Input File <==

--------------------------------------------------------------------------
MEMORY 60 GB

molecule dimer {
0 1
O      0.000000     0.000000     0.000000
H      0.588538     0.756918     0.000000
H      0.588538    -0.756918     0.000000
--
1 1
K      3.058000     0.000000     0.000000

units ang
no_reorient
no_com
symmetry c1
}

set {
basis        aug-cc-pVTZ
scf_type     df
}

energy("sapt2+")
--------------------------------------------------------------------------

  //              Dimer HF             //
    Molecular point group: c1
  Charge       = 1
  Multiplicity = 1
  Basis Set: AUG-CC-PVTZ
    Blend: AUG-CC-PVTZ
  Basis Set: (AUG-CC-PVTZ AUX)
    Blend: AUG-CC-PVTZ-JKFIT + DEF2-UNIVERSAL-JKFIT
  @DF-RHF Final Energy:  -675.05742024077995
    Total Energy =                       -675.0574202407799476
 Dipole X            :       -105.6897761          112.0212186            6.3314425
 Dipole Y            :          0.0000000            0.0000000            0.0000000
 Dipole Z            :         -0.0000000            0.0000000           -0.0000000
 Magnitude           :                                                    6.3314425
  //            Monomer A HF           //
    Molecular point group: c1
  Multiplicity = 1
  Basis Set: AUG-CC-PVTZ
    Blend: AUG-CC-PVTZ
  Basis Set: (AUG-CC-PVTZ AUX)
    Blend: AUG-CC-PVTZ-JKFIT + DEF2-UNIVERSAL-JKFIT
  @DF-RHF Final Energy:   -76.06050195976910
    Total Energy =                        -76.0605019597690983
  //            Monomer B HF           //
    Molecular point group: c1

    Geometry (in Angstrom), charge = 1, multiplicity = 1:

       Center              X                  Y                   Z               Mass
    ------------   -----------------  -----------------  -----------------  -----------------
      Gh(O)           0.000000000000     0.000000000000     0.000000000000    15.994914619570
      Gh(H)           0.588538000000     0.756918000000     0.000000000000     1.007825032230
      Gh(H)           0.588538000000    -0.756918000000     0.000000000000     1.007825032230
         K            3.058000000000     0.000000000000     0.000000000000    38.963706486400

  Charge       = 1
  Multiplicity = 1
  Basis Set: AUG-CC-PVTZ
    Blend: AUG-CC-PVTZ
  Basis Set: (AUG-CC-PVTZ AUX)
    Blend: AUG-CC-PVTZ-JKFIT + DEF2-UNIVERSAL-JKFIT

    Orbital Energies [Eh]
    ---------------------

    Doubly Occupied:

       1A   -133.753685     2A    -14.709145     3A    -11.739213
       4A    -11.739206     5A    -11.739205     6A     -1.964328
       7A     -1.170959     8A     -1.170911     9A     -1.170897

  @DF-RHF Final Energy:  -599.01750852237490

   => Energetics <=

    Nuclear Repulsion Energy =              0.0000000000000000
    One-Electron Energy =                -819.7199193092759515
    Two-Electron Energy =                 220.7024107869010550
    Total Energy =                       -599.0175085223748965
 Dipole X            :       -104.0185868          109.7968673            5.7782805
 Dipole Y            :          0.0000000            0.0000000            0.0000000
 Dipole Z            :          0.0000000            0.0000000            0.0000000
 Magnitude           :                                                    5.7782805

    SAPT Results
  --------------------------------------------------------------------------------------------------------
    Electrostatics                 18.67383663 [mEh]      11.71800940 [kcal/mol]      49.02815132 [kJ/mol]
      Elst10,r                     20.39878829 [mEh]      12.80043291 [kcal/mol]      53.55701128 [kJ/mol]
      Elst12,r                     -1.72495166 [mEh]      -1.08242351 [kcal/mol]      -4.52885996 [kJ/mol]

    Exchange                        5.76532991 [mEh]       3.61779914 [kcal/mol]      15.13687159 [kJ/mol]
      Exch10                        4.81939624 [mEh]       3.02421680 [kcal/mol]      12.65332310 [kJ/mol]
      Exch10(S^2)                   4.80774993 [mEh]       3.01690863 [kcal/mol]      12.62274569 [kJ/mol]
      Exch11(S^2)                   0.01233082 [mEh]       0.00773771 [kcal/mol]       0.03237457 [kJ/mol]
      Exch12(S^2)                   0.93360284 [mEh]       0.58584463 [kcal/mol]       2.45117392 [kJ/mol]

    Induction                      -5.60462043 [mEh]      -3.51695242 [kcal/mol]     -14.71492891 [kJ/mol]
      Ind20,r                      -8.63956620 [mEh]      -5.42140964 [kcal/mol]     -22.68317792 [kJ/mol]
      Ind22                        -1.86302157 [mEh]      -1.16906368 [kcal/mol]      -4.89136246 [kJ/mol]
      Exch-Ind20,r                  4.11032834 [mEh]       2.57926997 [kcal/mol]      10.79166557 [kJ/mol]
      Exch-Ind22                    0.88634431 [mEh]       0.55618945 [kcal/mol]       2.32709667 [kJ/mol]
      delta HF,r (2)               -0.09870532 [mEh]      -0.06193852 [kcal/mol]      -0.25915077 [kJ/mol]

    Dispersion                     -1.75922285 [mEh]      -1.10392900 [kcal/mol]      -4.61883894 [kJ/mol]
      Disp20                       -1.83564582 [mEh]      -1.15188514 [kcal/mol]      -4.81948743 [kJ/mol]
      Disp21                        0.17293317 [mEh]       0.10851720 [kcal/mol]       0.45403597 [kJ/mol]
      Disp22 (SDQ)                 -0.03559286 [mEh]      -0.02233486 [kcal/mol]      -0.09344904 [kJ/mol]
      Disp22 (T)                   -0.20286559 [mEh]      -0.12730008 [kcal/mol]      -0.53262354 [kJ/mol]
      Est. Disp22 (T)              -0.22317382 [mEh]      -0.14004369 [kcal/mol]      -0.58594279 [kJ/mol]
      Exch-Disp20                   0.16225649 [mEh]       0.10181748 [kcal/mol]       0.42600435 [kJ/mol]

  Total HF                         20.59024136 [mEh]      12.92057152 [kcal/mol]      54.05967125 [kJ/mol]
  Total SAPT0                      18.91685203 [mEh]      11.87050386 [kcal/mol]      49.66618817 [kJ/mol]
  Total SAPT2                      17.16115678 [mEh]      10.76878846 [kcal/mol]      45.05661092 [kJ/mol]
  Total SAPT2+                     17.07532327 [mEh]      10.71492712 [kcal/mol]      44.83125506 [kJ/mol]

  Special recipe for scaled SAPT0 (see Manual):
    Electrostatics sSAPT0          20.39878829 [mEh]      12.80043291 [kcal/mol]      53.55701128 [kJ/mol]
    Exchange sSAPT0                 4.81939624 [mEh]       3.02421680 [kcal/mol]      12.65332310 [kJ/mol]
    Induction sSAPT0               -4.59800011 [mEh]      -2.88528863 [kcal/mol]     -12.07204763 [kJ/mol]
    Dispersion sSAPT0              -1.67220732 [mEh]      -1.04932594 [kcal/mol]      -4.39037971 [kJ/mol]
  Total sSAPT0                     18.94797710 [mEh]      11.89003514 [kcal/mol]      49.74790703 [kJ/mol]
  --------------------------------------------------------------------------------------------------------

*** Psi4 exiting successfully. Buy a developer a beer!
