                               Psi4 1.9 release

  ==> Input File <==

--------------------------------------------------------------------------
MEMORY 60 GB

molecule dimer {
0 1
O      0.000000     0.000000     0.000000
H      0.588538     0.756918     0.000000
H      0.588538    -0.756918     0.000000
--
1 1
K      2.780000     0.000000     0.000000

units ang
no_reorient
no_com
symmetry c1
}

set {
basis        aug-cc-pVTZ
scf_type     df
}

energy("sapt2+")
--------------------------------------------------------------------------

  //              Dimer HF             //
    Molecular point group: c1
  Charge       = 1
  Multiplicity = 1
  Basis Set: AUG-CC-PVTZ
    Blend: AUG-CC-PVTZ
  Basis Set: (AUG-CC-PVTZ AUX)
    Blend: AUG-CC-PVTZ-JKFIT + DEF2-UNIVERSAL-JKFIT
  @DF-RHF Final Energy:  -675.04865999144351
    Total Energy =                       -675.0486599914435146
 Dipole X            :        -96.2513205          102.0396852            5.7883647
 Dipole Y            :          0.0000000            0.0000000            0.0000000
 Dipole Z            :         -0.0000000            0.0000000           -0.0000000
 Magnitude           :                                                    5.7883647
  //            Monomer A HF           //
    Molecular point group: c1
  Multiplicity = 1
  Basis Set: AUG-CC-PVTZ
    Blend: AUG-CC-PVTZ
  Basis Set: (AUG-CC-PVTZ AUX)
    Blend: AUG-CC-PVTZ-JKFIT + DEF2-UNIVERSAL-JKFIT
  @DF-RHF Final Energy:   -76.06050281700718
    Total Energy =                        -76.0605028170071762
  //            Monomer B HF           //
    Molecular point group: c1

    Geometry (in Angstrom), charge = 1, multiplicity = 1:

       Center              X                  Y                   Z               Mass
    ------------   -----------------  -----------------  -----------------  -----------------
      Gh(O)           0.000000000000     0.000000000000     0.000000000000    15.994914619570
      Gh(H)           0.588538000000     0.756918000000     0.000000000000     1.007825032230
      Gh(H)           0.588538000000    -0.756918000000     0.000000000000     1.007825032230
         K            2.780000000000     0.000000000000     0.000000000000    38.963706486400

  Charge       = 1
  Multiplicity = 1
  Basis Set: AUG-CC-PVTZ
    Blend: AUG-CC-PVTZ
  Basis Set: (AUG-CC-PVTZ AUX)
    Blend: AUG-CC-PVTZ-JKFIT + DEF2-UNIVERSAL-JKFIT

    Orbital Energies [Eh]
    ---------------------

    Doubly Occupied:

       1A   -133.753568     2A    -14.709050     3A    -11.739123
       4A    -11.739117     5A    -11.739115     6A     -1.964275
       7A     -1.170940     8A     -1.170889     9A     -1.170860

  @DF-RHF Final Energy:  -599.01750944227183

   => Energetics <=

    Nuclear Repulsion Energy =              0.0000000000000000
    One-Electron Energy =                -819.7211447348566935
    Two-Electron Energy =                 220.7036352925848348
    Total Energy =                       -599.0175094422718303
 Dipole X            :        -94.5624875           99.8153339            5.2528464
 Dipole Y            :         -0.0000000            0.0000000           -0.0000000
 Dipole Z            :          0.0000000            0.0000000            0.0000000
 Magnitude           :                                                    5.2528464

    SAPT Results
  --------------------------------------------------------------------------------------------------------
    Electrostatics                 19.59527362 [mEh]      12.29621984 [kcal/mol]      51.44738379 [kJ/mol]
      Elst10,r                     22.06554211 [mEh]      13.84633672 [kcal/mol]      57.93307284 [kJ/mol]
      Elst12,r                     -2.47026850 [mEh]      -1.55011688 [kcal/mol]      -6.48568905 [kJ/mol]

    Exchange                       16.03665834 [mEh]      10.06315504 [kcal/mol]      42.10424067 [kJ/mol]
      Exch10                       13.91856790 [mEh]       8.73403322 [kcal/mol]      36.54319498 [kJ/mol]
      Exch10(S^2)                  13.83264777 [mEh]       8.68011752 [kcal/mol]      36.31761172 [kJ/mol]
      Exch11(S^2)                  -0.01926026 [mEh]      -0.01208600 [kcal/mol]      -0.05056781 [kJ/mol]
      Exch12(S^2)                   2.13735070 [mEh]       1.34120782 [kcal/mol]       5.61161350 [kJ/mol]

    Induction                      -8.05617446 [mEh]      -5.05532580 [kcal/mol]     -21.15148314 [kJ/mol]
      Ind20,r                     -18.51754528 [mEh]     -11.61993509 [kcal/mol]     -48.61780843 [kJ/mol]
      Ind22                        -4.17139047 [mEh]      -2.61758704 [kcal/mol]     -10.95198417 [kJ/mol]
      Exch-Ind20,r                 12.19468057 [mEh]       7.65227758 [kcal/mol]      32.01712941 [kJ/mol]
      Exch-Ind22                    2.74705818 [mEh]       1.72380504 [kcal/mol]       7.21240027 [kJ/mol]
      delta HF,r (2)               -0.30897746 [mEh]      -0.19388629 [kcal/mol]      -0.81122022 [kJ/mol]

    Dispersion                     -3.23633845 [mEh]      -2.03083304 [kcal/mol]      -8.49700544 [kJ/mol]
      Disp20                       -3.52082719 [mEh]      -2.20935242 [kcal/mol]      -9.24393051 [kJ/mol]
      Disp21                        0.29255364 [mEh]       0.18358018 [kcal/mol]       0.76809947 [kJ/mol]
      Disp22 (SDQ)                 -0.04820335 [mEh]      -0.03024806 [kcal/mol]      -0.12655789 [kJ/mol]
      Disp22 (T)                   -0.37727101 [mEh]      -0.23674113 [kcal/mol]      -0.99052490 [kJ/mol]
      Est. Disp22 (T)              -0.41610638 [mEh]      -0.26111070 [kcal/mol]      -1.09248716 [kJ/mol]
      Exch-Disp20                   0.45624484 [mEh]       0.28629796 [kcal/mol]       1.19787066 [kJ/mol]

  Total HF                         29.35226784 [mEh]      18.41882614 [kcal/mol]      77.06436859 [kJ/mol]
  Total SAPT0                      26.28768549 [mEh]      16.49577169 [kcal/mol]      69.01830873 [kJ/mol]
  Total SAPT2                      24.51117514 [mEh]      15.38099462 [kcal/mol]      64.35408147 [kJ/mol]
  Total SAPT2+                     24.33941904 [mEh]      15.27321604 [kcal/mol]      63.90313589 [kJ/mol]

  Special recipe for scaled SAPT0 (see Manual):
    Electrostatics sSAPT0          22.06554211 [mEh]      13.84633672 [kcal/mol]      57.93307284 [kJ/mol]
    Exchange sSAPT0                13.91856790 [mEh]       8.73403322 [kcal/mol]      36.54319498 [kJ/mol]
    Induction sSAPT0               -6.40318962 [mEh]      -4.01806215 [kcal/mol]     -16.81157204 [kJ/mol]
    Dispersion sSAPT0              -3.05602767 [mEh]      -1.91768632 [kcal/mol]      -8.02359955 [kJ/mol]
  Total sSAPT0                     26.52489271 [mEh]      16.64462147 [kcal/mol]      69.64109623 [kJ/mol]
  --------------------------------------------------------------------------------------------------------

*** Psi4 exiting successfully. Buy a developer a beer!
