                               Psi4 1.9 release

  ==> Input File <==

--------------------------------------------------------------------------
MEMORY 60 GB

molecule dimer {
0 1
O      0.000000     0.000000     0.000000
H     -0.588538     0.756918     0.000000
H     -0.588538    -0.756918     0.000000
--
-1 1
F      5.460000     0.000000     0.000000

units ang
no_reorient
no_com
symmetry c1
}

set {
basis        aug-cc-pVTZ
scf_type     df
}

energy("sapt2+")
--------------------------------------------------------------------------

  //              Dimer HF             //
    Molecular point group: c1
  Charge       = -1
  Multiplicity = 1
  Basis Set: AUG-CC-PVTZ
    Blend: AUG-CC-PVTZ
  Basis Set: (AUG-CC-PVTZ AUX)
    Blend: AUG-CC-PVTZ-JKFIT
  @DF-RHF Final Energy:  -175.50452139081642
    Total Energy =                       -175.5045213908163930
 Dipole X            :       -101.6715604           90.6367905          -11.0347698
 Dipole Y            :          0.0000000            0.0000000            0.0000000
 Dipole Z            :         -0.0000000            0.0000000           -0.0000000
 Magnitude           :                                                   11.0347698
  //            Monomer A HF           //
    Molecular point group: c1
  Multiplicity = 1
  Basis Set: AUG-CC-PVTZ
    Blend: AUG-CC-PVTZ
  Basis Set: (AUG-CC-PVTZ AUX)
    Blend: AUG-CC-PVTZ-JKFIT
  @DF-RHF Final Energy:   -76.06048080962110
    Total Energy =                        -76.0604808096210974
  //            Monomer B HF           //
    Molecular point group: c1

    Geometry (in Angstrom), charge = -1, multiplicity = 1:

       Center              X                  Y                   Z               Mass
    ------------   -----------------  -----------------  -----------------  -----------------
      Gh(O)           0.000000000000     0.000000000000     0.000000000000    15.994914619570
      Gh(H)          -0.588538000000     0.756918000000     0.000000000000     1.007825032230
      Gh(H)          -0.588538000000    -0.756918000000     0.000000000000     1.007825032230
         F            5.460000000000     0.000000000000     0.000000000000    18.998403162730

  Charge       = -1
  Multiplicity = 1
  Basis Set: AUG-CC-PVTZ
    Blend: AUG-CC-PVTZ
  Basis Set: (AUG-CC-PVTZ AUX)
    Blend: AUG-CC-PVTZ-JKFIT

    Orbital Energies [Eh]
    ---------------------

    Doubly Occupied:

       1A    -25.833714     2A     -1.076040     3A     -0.180968
       4A     -0.180966     5A     -0.180961

  @DF-RHF Final Energy:   -99.45080825767145

   => Energetics <=

    Nuclear Repulsion Energy =              0.0000000000000000
    One-Electron Energy =                -143.9963181546530677
    Two-Electron Energy =                  44.5455098969816135
    Total Energy =                        -99.4508082576714543
 Dipole X            :       -103.1787454           92.8611418          -10.3176036
 Dipole Y            :          0.0000000            0.0000000            0.0000000
 Dipole Z            :         -0.0000000            0.0000000           -0.0000000
 Magnitude           :                                                   10.3176036

    SAPT Results
  --------------------------------------------------------------------------------------------------------
    Electrostatics                  6.66763211 [mEh]       4.18400232 [kcal/mol]      17.50586570 [kJ/mol]
      Elst10,r                      7.11919605 [mEh]       4.46736297 [kcal/mol]      18.69144667 [kJ/mol]
      Elst12,r                     -0.45156394 [mEh]      -0.28336065 [kcal/mol]      -1.18558096 [kJ/mol]

    Exchange                        0.00486906 [mEh]       0.00305538 [kcal/mol]       0.01278371 [kJ/mol]
      Exch10                        0.00195879 [mEh]       0.00122916 [kcal/mol]       0.00514281 [kJ/mol]
      Exch10(S^2)                   0.00195879 [mEh]       0.00122916 [kcal/mol]       0.00514280 [kJ/mol]
      Exch11(S^2)                  -0.00019392 [mEh]      -0.00012168 [kcal/mol]      -0.00050913 [kJ/mol]
      Exch12(S^2)                   0.00310418 [mEh]       0.00194790 [kcal/mol]       0.00815003 [kJ/mol]

    Induction                      -0.39302456 [mEh]      -0.24662664 [kcal/mol]      -1.03188585 [kJ/mol]
      Ind20,r                      -0.35831724 [mEh]      -0.22484746 [kcal/mol]      -0.94076178 [kJ/mol]
      Ind22                        -0.03966499 [mEh]      -0.02489016 [kcal/mol]      -0.10414041 [kJ/mol]
      Exch-Ind20,r                  0.00107316 [mEh]       0.00067342 [kcal/mol]       0.00281759 [kJ/mol]
      Exch-Ind22                    0.00011880 [mEh]       0.00007455 [kcal/mol]       0.00031190 [kJ/mol]
      delta HF,r (2)                0.00376570 [mEh]       0.00236301 [kcal/mol]       0.00988685 [kJ/mol]

    Dispersion                     -0.03916883 [mEh]      -0.02457881 [kcal/mol]      -0.10283776 [kJ/mol]
      Disp20                       -0.02916730 [mEh]      -0.01830276 [kcal/mol]      -0.07657874 [kJ/mol]
      Disp21                        0.00036190 [mEh]       0.00022709 [kcal/mol]       0.00095016 [kJ/mol]
      Disp22 (SDQ)                 -0.00403200 [mEh]      -0.00253012 [kcal/mol]      -0.01058601 [kJ/mol]
      Disp22 (T)                   -0.00635985 [mEh]      -0.00399087 [kcal/mol]      -0.01669779 [kJ/mol]
      Est. Disp22 (T)              -0.00674540 [mEh]      -0.00423280 [kcal/mol]      -0.01771005 [kJ/mol]
      Exch-Disp20                   0.00041397 [mEh]       0.00025977 [kcal/mol]       0.00108689 [kJ/mol]

  Total HF                          6.76767648 [mEh]       4.24678110 [kcal/mol]      17.76853214 [kJ/mol]
  Total SAPT0                       6.73892315 [mEh]       4.22873812 [kcal/mol]      17.69304029 [kJ/mol]
  Total SAPT2                       6.25072328 [mEh]       3.92238808 [kcal/mol]      16.41127171 [kJ/mol]
  Total SAPT2+                      6.24030778 [mEh]       3.91585225 [kcal/mol]      16.38392581 [kJ/mol]

  Special recipe for scaled SAPT0 (see Manual):
    Electrostatics sSAPT0           7.11919605 [mEh]       4.46736297 [kcal/mol]      18.69144667 [kJ/mol]
    Exchange sSAPT0                 0.00195879 [mEh]       0.00122916 [kcal/mol]       0.00514281 [kJ/mol]
    Induction sSAPT0               -0.35347837 [mEh]      -0.22181103 [kcal/mol]      -0.92805733 [kJ/mol]
    Dispersion sSAPT0              -0.02875333 [mEh]      -0.01804299 [kcal/mol]      -0.07549186 [kJ/mol]
  Total sSAPT0                      6.73892315 [mEh]       4.22873812 [kcal/mol]      17.69304029 [kJ/mol]
  --------------------------------------------------------------------------------------------------------

*** Psi4 exiting successfully. Buy a developer a beer!
