                               Psi4 1.9 release

  ==> Input File <==

--------------------------------------------------------------------------
MEMORY 60 GB

molecule dimer {
0 1
O      0.000000     0.000000     0.000000
H     -0.588538     0.756918     0.000000
H     -0.588538    -0.756918     0.000000
--
-1 1
F      2.730000     0.000000     0.000000

units ang
no_reorient
no_com
symmetry c1
}

set {
basis        aug-cc-pVTZ
scf_type     df
}

energy("sapt2+")
--------------------------------------------------------------------------

  //              Dimer HF             //
    Molecular point group: c1
  Charge       = -1
  Multiplicity = 1
  Basis Set: AUG-CC-PVTZ
    Blend: AUG-CC-PVTZ
  Basis Set: (AUG-CC-PVTZ AUX)
    Blend: AUG-CC-PVTZ-JKFIT
  @DF-RHF Final Energy:  -175.48675817233058
    Total Energy =                       -175.4867581723305534
 Dipole X            :        -49.9563943           44.2062196           -5.7501747
 Dipole Y            :         -0.0000000            0.0000000           -0.0000000
 Dipole Z            :          0.0000000            0.0000000            0.0000000
 Magnitude           :                                                    5.7501747
  //            Monomer A HF           //
    Molecular point group: c1
  Multiplicity = 1
  Basis Set: AUG-CC-PVTZ
    Blend: AUG-CC-PVTZ
  Basis Set: (AUG-CC-PVTZ AUX)
    Blend: AUG-CC-PVTZ-JKFIT
  @DF-RHF Final Energy:   -76.06049376717283
    Total Energy =                        -76.0604937671728152
  //            Monomer B HF           //
    Molecular point group: c1

    Geometry (in Angstrom), charge = -1, multiplicity = 1:

       Center              X                  Y                   Z               Mass
    ------------   -----------------  -----------------  -----------------  -----------------
      Gh(O)           0.000000000000     0.000000000000     0.000000000000    15.994914619570
      Gh(H)          -0.588538000000     0.756918000000     0.000000000000     1.007825032230
      Gh(H)          -0.588538000000    -0.756918000000     0.000000000000     1.007825032230
         F            2.730000000000     0.000000000000     0.000000000000    18.998403162730

  Charge       = -1
  Multiplicity = 1
  Basis Set: AUG-CC-PVTZ
    Blend: AUG-CC-PVTZ
  Basis Set: (AUG-CC-PVTZ AUX)
    Blend: AUG-CC-PVTZ-JKFIT

    Orbital Energies [Eh]
    ---------------------

    Doubly Occupied:

       1A    -25.833762     2A     -1.076035     3A     -0.180990
       4A     -0.180973     5A     -0.180956

  @DF-RHF Final Energy:   -99.45083810979798

   => Energetics <=

    Nuclear Repulsion Energy =              0.0000000000000000
    One-Electron Energy =                -143.9962414966664426
    Two-Electron Energy =                  44.5454033868684576
    Total Energy =                        -99.4508381097979850
 Dipole X            :        -51.5891253           46.4305709           -5.1585544
 Dipole Y            :          0.0000000            0.0000000            0.0000000
 Dipole Z            :          0.0000000            0.0000000            0.0000000
 Magnitude           :                                                    5.1585544

    SAPT Results
  --------------------------------------------------------------------------------------------------------
    Electrostatics                 19.75065326 [mEh]      12.39372203 [kcal/mol]      51.85533299 [kJ/mol]
      Elst10,r                     23.36000679 [mEh]      14.65862557 [kcal/mol]      61.33168938 [kJ/mol]
      Elst12,r                     -3.60935353 [mEh]      -2.26490354 [kcal/mol]      -9.47635640 [kJ/mol]

    Exchange                        9.11143439 [mEh]       5.71751140 [kcal/mol]      23.92206768 [kJ/mol]
      Exch10                        6.55484285 [mEh]       4.11322599 [kcal/mol]      17.20973753 [kJ/mol]
      Exch10(S^2)                   6.53578453 [mEh]       4.10126671 [kcal/mol]      17.15969992 [kJ/mol]
      Exch11(S^2)                  -0.31826633 [mEh]      -0.19971514 [kcal/mol]      -0.83560813 [kJ/mol]
      Exch12(S^2)                   2.87485787 [mEh]       1.80400055 [kcal/mol]       7.54793829 [kJ/mol]

    Induction                      -6.71927579 [mEh]      -4.21640921 [kcal/mol]     -17.64145615 [kJ/mol]
      Ind20,r                      -8.11175354 [mEh]      -5.09020219 [kcal/mol]     -21.29740597 [kJ/mol]
      Ind22                        -2.28232339 [mEh]      -1.43217955 [kcal/mol]      -5.99223922 [kJ/mol]
      Exch-Ind20,r                  3.21364954 [mEh]       2.01659553 [kcal/mol]       8.43743571 [kJ/mol]
      Exch-Ind22                    0.90419260 [mEh]       0.56738942 [kcal/mol]       2.37395734 [kJ/mol]
      delta HF,r (2)               -0.44304101 [mEh]      -0.27801243 [kcal/mol]      -1.16320400 [kJ/mol]

    Dispersion                     -3.22480405 [mEh]      -2.02359509 [kcal/mol]      -8.46672186 [kJ/mol]
      Disp20                       -3.02071654 [mEh]      -1.89552824 [kcal/mol]      -7.93089017 [kJ/mol]
      Disp21                        0.09400067 [mEh]       0.05898631 [kcal/mol]       0.24679871 [kJ/mol]
      Disp22 (SDQ)                 -0.44524892 [mEh]      -0.27939792 [kcal/mol]      -1.16900088 [kJ/mol]
      Disp22 (T)                   -0.52678989 [mEh]      -0.33056565 [kcal/mol]      -1.38308666 [kJ/mol]
      Est. Disp22 (T)              -0.65413505 [mEh]      -0.41047594 [kcal/mol]      -1.71743134 [kJ/mol]
      Exch-Disp20                   0.80129579 [mEh]       0.50282070 [kcal/mol]       2.10380182 [kJ/mol]

  Total HF                         24.57370464 [mEh]      15.42023247 [kcal/mol]      64.51825264 [kJ/mol]
  Total SAPT0                      22.35428390 [mEh]      14.02752492 [kcal/mol]      58.69116429 [kJ/mol]
  Total SAPT2                      19.92339111 [mEh]      12.50211667 [kcal/mol]      52.30885616 [kJ/mol]
  Total SAPT2+                     18.91800781 [mEh]      11.87122913 [kcal/mol]      49.66922266 [kJ/mol]

  Special recipe for scaled SAPT0 (see Manual):
    Electrostatics sSAPT0          23.36000679 [mEh]      14.65862557 [kcal/mol]      61.33168938 [kJ/mol]
    Exchange sSAPT0                 6.55484285 [mEh]       4.11322599 [kcal/mol]      17.20973753 [kJ/mol]
    Induction sSAPT0               -5.31294998 [mEh]      -3.33392645 [kcal/mol]     -13.94914825 [kJ/mol]
    Dispersion sSAPT0              -2.21239056 [mEh]      -1.38829604 [kcal/mol]      -5.80863061 [kJ/mol]
  Total sSAPT0                     22.38950910 [mEh]      14.04962907 [kcal/mol]      58.78364805 [kJ/mol]
  --------------------------------------------------------------------------------------------------------

*** Psi4 exiting successfully. Buy a developer a beer!
