                               Psi4 1.9 release

  ==> Input File <==

--------------------------------------------------------------------------
MEMORY 60 GB

molecule dimer {
0 1
O      0.000000     0.000000     0.000000
H     -0.588538     0.756918     0.000000
H     -0.588538    -0.756918     0.000000
--
-1 1
F      3.276000     0.000000     0.000000

units ang
no_reorient
no_com
symmetry c1
}

set {
basis        aug-cc-pVTZ
scf_type     df
}

energy("sapt2+")
--------------------------------------------------------------------------

  //              Dimer HF             //
    Molecular point group: c1
  Charge       = -1
  Multiplicity = 1
  Basis Set: AUG-CC-PVTZ
    Blend: AUG-CC-PVTZ
  Basis Set: (AUG-CC-PVTZ AUX)
    Blend: AUG-CC-PVTZ-JKFIT
  @DF-RHF Final Energy:  -175.49438463078113
    Total Energy =                       -175.4943846307810986
 Dipole X            :        -60.3170939           53.4923338           -6.8247601
 Dipole Y            :         -0.0000000            0.0000000           -0.0000000
 Dipole Z            :         -0.0000000            0.0000000           -0.0000000
 Magnitude           :                                                    6.8247601
  //            Monomer A HF           //
    Molecular point group: c1
  Multiplicity = 1
  Basis Set: AUG-CC-PVTZ
    Blend: AUG-CC-PVTZ
  Basis Set: (AUG-CC-PVTZ AUX)
    Blend: AUG-CC-PVTZ-JKFIT
  @DF-RHF Final Energy:   -76.06048390335111
    Total Energy =                        -76.0604839033511269
  //            Monomer B HF           //
    Molecular point group: c1

    Geometry (in Angstrom), charge = -1, multiplicity = 1:

       Center              X                  Y                   Z               Mass
    ------------   -----------------  -----------------  -----------------  -----------------
      Gh(O)           0.000000000000     0.000000000000     0.000000000000    15.994914619570
      Gh(H)          -0.588538000000     0.756918000000     0.000000000000     1.007825032230
      Gh(H)          -0.588538000000    -0.756918000000     0.000000000000     1.007825032230
         F            3.276000000000     0.000000000000     0.000000000000    18.998403162730

  Charge       = -1
  Multiplicity = 1
  Basis Set: AUG-CC-PVTZ
    Blend: AUG-CC-PVTZ
  Basis Set: (AUG-CC-PVTZ AUX)
    Blend: AUG-CC-PVTZ-JKFIT

    Orbital Energies [Eh]
    ---------------------

    Doubly Occupied:

       1A    -25.833752     2A     -1.076035     3A     -0.180973
       4A     -0.180969     5A     -0.180965

  @DF-RHF Final Energy:   -99.45082333268076

   => Energetics <=

    Nuclear Repulsion Energy =              0.0000000000000000
    One-Electron Energy =                -143.9962591295166590
    Two-Electron Energy =                  44.5454357968359034
    Total Energy =                        -99.4508233326807556
 Dipole X            :        -61.9064548           55.7166851           -6.1897697
 Dipole Y            :          0.0000000            0.0000000            0.0000000
 Dipole Z            :         -0.0000000            0.0000000           -0.0000000
 Magnitude           :                                                    6.1897697

    SAPT Results
  --------------------------------------------------------------------------------------------------------
    Electrostatics                 16.75432876 [mEh]      10.51350002 [kcal/mol]      43.98848410 [kJ/mol]
      Elst10,r                     18.48828778 [mEh]      11.60157573 [kcal/mol]      48.54099287 [kJ/mol]
      Elst12,r                     -1.73395901 [mEh]      -1.08807571 [kcal/mol]      -4.55250876 [kJ/mol]

    Exchange                        1.78045888 [mEh]       1.11725482 [kcal/mol]       4.67459415 [kJ/mol]
      Exch10                        1.11630305 [mEh]       0.70049074 [kcal/mol]       2.93085326 [kJ/mol]
      Exch10(S^2)                   1.11571343 [mEh]       0.70012074 [kcal/mol]       2.92930520 [kJ/mol]
      Exch11(S^2)                  -0.07270481 [mEh]      -0.04562296 [kcal/mol]      -0.19088646 [kJ/mol]
      Exch12(S^2)                   0.73686064 [mEh]       0.46238703 [kcal/mol]       1.93462735 [kJ/mol]

    Induction                      -3.25433162 [mEh]      -2.04212392 [kcal/mol]      -8.54424648 [kJ/mol]
      Ind20,r                      -3.26149112 [mEh]      -2.04661658 [kcal/mol]      -8.56304376 [kJ/mol]
      Ind22                        -0.69417885 [mEh]      -0.43560380 [kcal/mol]      -1.82256631 [kJ/mol]
      Exch-Ind20,r                  0.57241246 [mEh]       0.35919424 [kcal/mol]       1.50286871 [kJ/mol]
      Exch-Ind22                    0.12183281 [mEh]       0.07645124 [kcal/mol]       0.31987199 [kJ/mol]
      delta HF,r (2)                0.00709308 [mEh]       0.00445098 [kcal/mol]       0.01862288 [kJ/mol]

    Dispersion                     -1.16157646 [mEh]      -0.72890023 [kcal/mol]      -3.04971857 [kJ/mol]
      Disp20                       -0.94871945 [mEh]      -0.59533044 [kcal/mol]      -2.49086257 [kJ/mol]
      Disp21                        0.00647246 [mEh]       0.00406153 [kcal/mol]       0.01699344 [kJ/mol]
      Disp22 (SDQ)                 -0.16851673 [mEh]      -0.10574585 [kcal/mol]      -0.44244062 [kJ/mol]
      Disp22 (T)                   -0.18015047 [mEh]      -0.11304613 [kcal/mol]      -0.47298499 [kJ/mol]
      Est. Disp22 (T)              -0.21986683 [mEh]      -0.13796852 [kcal/mol]      -0.57726029 [kJ/mol]
      Exch-Disp20                   0.16905410 [mEh]       0.10608305 [kcal/mol]       0.44385147 [kJ/mol]

  Total HF                         16.92260525 [mEh]      10.61909512 [kcal/mol]      44.43029396 [kJ/mol]
  Total SAPT0                      16.14293990 [mEh]      10.12984772 [kcal/mol]      42.38328286 [kJ/mol]
  Total SAPT2                      14.50079067 [mEh]       9.09938353 [kcal/mol]      38.07182067 [kJ/mol]
  Total SAPT2+                     14.11887957 [mEh]       8.85973069 [kcal/mol]      37.06911320 [kJ/mol]

  Special recipe for scaled SAPT0 (see Manual):
    Electrostatics sSAPT0          18.48828778 [mEh]      11.60157573 [kcal/mol]      48.54099287 [kJ/mol]
    Exchange sSAPT0                 1.11630305 [mEh]       0.70049074 [kcal/mol]       2.93085326 [kJ/mol]
    Induction sSAPT0               -2.68107758 [mEh]      -1.68240158 [kcal/mol]      -7.03916822 [kJ/mol]
    Dispersion sSAPT0              -0.77939719 [mEh]      -0.48907912 [kcal/mol]      -2.04630704 [kJ/mol]
  Total sSAPT0                     16.14411606 [mEh]      10.13058577 [kcal/mol]      42.38637088 [kJ/mol]
  --------------------------------------------------------------------------------------------------------

*** Psi4 exiting successfully. Buy a developer a beer!
