                               Psi4 1.9 release

  ==> Input File <==

--------------------------------------------------------------------------
MEMORY 60 GB

molecule dimer {
0 1
O      0.000000     0.000000     0.000000
H     -0.588538     0.756918     0.000000
H     -0.588538    -0.756918     0.000000
--
-1 1
F      3.549000     0.000000     0.000000

units ang
no_reorient
no_com
symmetry c1
}

set {
basis        aug-cc-pVTZ
scf_type     df
}

energy("sapt2+")
--------------------------------------------------------------------------

  //              Dimer HF             //
    Molecular point group: c1
  Charge       = -1
  Multiplicity = 1
  Basis Set: AUG-CC-PVTZ
    Blend: AUG-CC-PVTZ
  Basis Set: (AUG-CC-PVTZ AUX)
    Blend: AUG-CC-PVTZ-JKFIT
  @DF-RHF Final Energy:  -175.49665636076145
    Total Energy =                       -175.4966563607614489
 Dipole X            :        -65.4926390           58.1353909           -7.3572481
 Dipole Y            :         -0.0000000            0.0000000           -0.0000000
 Dipole Z            :          0.0000000            0.0000000            0.0000000
 Magnitude           :                                                    7.3572481
  //            Monomer A HF           //
    Molecular point group: c1
  Multiplicity = 1
  Basis Set: AUG-CC-PVTZ
    Blend: AUG-CC-PVTZ
  Basis Set: (AUG-CC-PVTZ AUX)
    Blend: AUG-CC-PVTZ-JKFIT
  @DF-RHF Final Energy:   -76.06048381958975
    Total Energy =                        -76.0604838195897628
  //            Monomer B HF           //
    Molecular point group: c1

    Geometry (in Angstrom), charge = -1, multiplicity = 1:

       Center              X                  Y                   Z               Mass
    ------------   -----------------  -----------------  -----------------  -----------------
      Gh(O)           0.000000000000     0.000000000000     0.000000000000    15.994914619570
      Gh(H)          -0.588538000000     0.756918000000     0.000000000000     1.007825032230
      Gh(H)          -0.588538000000    -0.756918000000     0.000000000000     1.007825032230
         F            3.549000000000     0.000000000000     0.000000000000    18.998403162730

  Charge       = -1
  Multiplicity = 1
  Basis Set: AUG-CC-PVTZ
    Blend: AUG-CC-PVTZ
  Basis Set: (AUG-CC-PVTZ AUX)
    Blend: AUG-CC-PVTZ-JKFIT

    Orbital Energies [Eh]
    ---------------------

    Doubly Occupied:

       1A    -25.833744     2A     -1.076036     3A     -0.180971
       4A     -0.180970     5A     -0.180965

  @DF-RHF Final Energy:   -99.45082100933998

   => Energetics <=

    Nuclear Repulsion Energy =              0.0000000000000000
    One-Electron Energy =                -143.9962692081477371
    Two-Electron Energy =                  44.5454481988077475
    Total Energy =                        -99.4508210093399896
 Dipole X            :        -67.0656873           60.3597422           -6.7059451
 Dipole Y            :          0.0000000            0.0000000            0.0000000
 Dipole Z            :          0.0000000            0.0000000            0.0000000
 Magnitude           :                                                    6.7059451

    SAPT Results
  --------------------------------------------------------------------------------------------------------
    Electrostatics                 14.82617882 [mEh]       9.30356767 [kcal/mol]      38.92612712 [kJ/mol]
      Elst10,r                     16.13476467 [mEh]      10.12471769 [kcal/mol]      42.36181879 [kJ/mol]
      Elst12,r                     -1.30858585 [mEh]      -0.82115002 [kcal/mol]      -3.43569168 [kJ/mol]

    Exchange                        0.81247754 [mEh]       0.50983736 [kcal/mol]       2.13315950 [kJ/mol]
      Exch10                        0.47715399 [mEh]       0.29941865 [kcal/mol]       1.25276762 [kJ/mol]
      Exch10(S^2)                   0.47704345 [mEh]       0.29934929 [kcal/mol]       1.25247741 [kJ/mol]
      Exch11(S^2)                  -0.03467595 [mEh]      -0.02175949 [kcal/mol]      -0.09104170 [kJ/mol]
      Exch12(S^2)                   0.36999951 [mEh]       0.23217820 [kcal/mol]       0.97143358 [kJ/mol]

    Induction                      -2.32990199 [mEh]      -1.46203557 [kcal/mol]      -6.11715684 [kJ/mol]
      Ind20,r                      -2.24298294 [mEh]      -1.40749305 [kcal/mol]      -5.88895091 [kJ/mol]
      Ind22                        -0.41222258 [mEh]      -0.25867358 [kcal/mol]      -1.08229024 [kJ/mol]
      Exch-Ind20,r                  0.24904928 [mEh]       0.15628078 [kcal/mol]       0.65387879 [kJ/mol]
      Exch-Ind22                    0.04577107 [mEh]       0.02872178 [kcal/mol]       0.12017194 [kJ/mol]
      delta HF,r (2)                0.03048318 [mEh]       0.01912849 [kcal/mol]       0.08003358 [kJ/mol]

    Dispersion                     -0.70398361 [mEh]      -0.44175638 [kcal/mol]      -1.84830871 [kJ/mol]
      Disp20                       -0.55062067 [mEh]      -0.34551969 [kcal/mol]      -1.44565438 [kJ/mol]
      Disp21                        0.00142607 [mEh]       0.00089488 [kcal/mol]       0.00374416 [kJ/mol]
      Disp22 (SDQ)                 -0.10278126 [mEh]      -0.06449622 [kcal/mol]      -0.26985216 [kJ/mol]
      Disp22 (T)                   -0.10802519 [mEh]      -0.06778683 [kcal/mol]      -0.28362009 [kJ/mol]
      Est. Disp22 (T)              -0.12964717 [mEh]      -0.08135483 [kcal/mol]      -0.34038860 [kJ/mol]
      Exch-Disp20                   0.07763942 [mEh]       0.04871947 [kcal/mol]       0.20384227 [kJ/mol]

  Total HF                         14.64846817 [mEh]       9.19205255 [kcal/mol]      38.45954788 [kJ/mol]
  Total SAPT0                      14.17548692 [mEh]       8.89525234 [kcal/mol]      37.21773577 [kJ/mol]
  Total SAPT2                      12.83577312 [mEh]       8.05456923 [kcal/mol]      33.70031767 [kJ/mol]
  Total SAPT2+                     12.60477076 [mEh]       7.90961307 [kcal/mol]      33.09382107 [kJ/mol]

  Special recipe for scaled SAPT0 (see Manual):
    Electrostatics sSAPT0          16.13476467 [mEh]      10.12471769 [kcal/mol]      42.36181879 [kJ/mol]
    Exchange sSAPT0                 0.47715399 [mEh]       0.29941865 [kcal/mol]       1.25276762 [kJ/mol]
    Induction sSAPT0               -1.96327733 [mEh]      -1.23197512 [kcal/mol]      -5.15458391 [kJ/mol]
    Dispersion sSAPT0              -0.47292727 [mEh]      -0.29676634 [kcal/mol]      -1.24167038 [kJ/mol]
  Total sSAPT0                     14.17571405 [mEh]       8.89539487 [kcal/mol]      37.21833212 [kJ/mol]
  --------------------------------------------------------------------------------------------------------

*** Psi4 exiting successfully. Buy a developer a beer!
