                               Psi4 1.9 release

  ==> Input File <==

--------------------------------------------------------------------------
MEMORY 60 GB

molecule dimer {
0 1
O      0.000000     0.000000     0.000000
H     -0.588538     0.756918     0.000000
H     -0.588538    -0.756918     0.000000
--
-1 1
F      4.095000     0.000000     0.000000

units ang
no_reorient
no_com
symmetry c1
}

set {
basis        aug-cc-pVTZ
scf_type     df
}

energy("sapt2+")
--------------------------------------------------------------------------

  //              Dimer HF             //
    Molecular point group: c1
  Charge       = -1
  Multiplicity = 1
  Basis Set: AUG-CC-PVTZ
    Blend: AUG-CC-PVTZ
  Basis Set: (AUG-CC-PVTZ AUX)
    Blend: AUG-CC-PVTZ-JKFIT
  @DF-RHF Final Energy:  -175.49991960507649
    Total Energy =                       -175.4999196050764851
 Dipole X            :        -75.8369462           67.4215051           -8.4154411
 Dipole Y            :          0.0000000            0.0000000            0.0000000
 Dipole Z            :          0.0000000            0.0000000            0.0000000
 Magnitude           :                                                    8.4154411
  //            Monomer A HF           //
    Molecular point group: c1
  Multiplicity = 1
  Basis Set: AUG-CC-PVTZ
    Blend: AUG-CC-PVTZ
  Basis Set: (AUG-CC-PVTZ AUX)
    Blend: AUG-CC-PVTZ-JKFIT
  @DF-RHF Final Energy:   -76.06048132686691
    Total Energy =                        -76.0604813268669062
  //            Monomer B HF           //
    Molecular point group: c1

    Geometry (in Angstrom), charge = -1, multiplicity = 1:

       Center              X                  Y                   Z               Mass
    ------------   -----------------  -----------------  -----------------  -----------------
      Gh(O)           0.000000000000     0.000000000000     0.000000000000    15.994914619570
      Gh(H)          -0.588538000000     0.756918000000     0.000000000000     1.007825032230
      Gh(H)          -0.588538000000    -0.756918000000     0.000000000000     1.007825032230
         F            4.095000000000     0.000000000000     0.000000000000    18.998403162730

  Charge       = -1
  Multiplicity = 1
  Basis Set: AUG-CC-PVTZ
    Blend: AUG-CC-PVTZ
  Basis Set: (AUG-CC-PVTZ AUX)
    Blend: AUG-CC-PVTZ-JKFIT

    Orbital Energies [Eh]
    ---------------------

    Doubly Occupied:

       1A    -25.833744     2A     -1.076047     3A     -0.180978
       4A     -0.180974     5A     -0.180972

  @DF-RHF Final Energy:   -99.45081295910998

   => Energetics <=

    Nuclear Repulsion Energy =              0.0000000000000000
    One-Electron Energy =                -143.9961958893345866
    Two-Electron Energy =                  44.5453829302245907
    Total Energy =                        -99.4508129591099959
 Dipole X            :        -77.3840288           69.6458564           -7.7381724
 Dipole Y            :          0.0000000            0.0000000            0.0000000
 Dipole Z            :          0.0000000            0.0000000            0.0000000
 Magnitude           :                                                    7.7381724

    SAPT Results
  --------------------------------------------------------------------------------------------------------
    Electrostatics                 11.53895163 [mEh]       7.24080147 [kcal/mol]      30.29551334 [kJ/mol]
      Elst10,r                     12.39516388 [mEh]       7.77808276 [kcal/mol]      32.54349828 [kJ/mol]
      Elst12,r                     -0.85621224 [mEh]      -0.53728129 [kcal/mol]      -2.24798494 [kJ/mol]

    Exchange                        0.17841844 [mEh]       0.11195926 [kcal/mol]       0.46843756 [kJ/mol]
      Exch10                        0.09276071 [mEh]       0.05820822 [kcal/mol]       0.24354321 [kJ/mol]
      Exch10(S^2)                   0.09275621 [mEh]       0.05820540 [kcal/mol]       0.24353140 [kJ/mol]
      Exch11(S^2)                  -0.00783241 [mEh]      -0.00491491 [kcal/mol]      -0.02056398 [kJ/mol]
      Exch12(S^2)                   0.09349014 [mEh]       0.05866595 [kcal/mol]       0.24545833 [kJ/mol]

    Induction                      -1.27708426 [mEh]      -0.80138247 [kcal/mol]      -3.35298425 [kJ/mol]
      Ind20,r                      -1.18507346 [mEh]      -0.74364482 [kcal/mol]      -3.11140994 [kJ/mol]
      Ind22                        -0.17096211 [mEh]      -0.10728034 [kcal/mol]      -0.44886095 [kJ/mol]
      Exch-Ind20,r                  0.04936501 [mEh]       0.03097701 [kcal/mol]       0.12960781 [kJ/mol]
      Exch-Ind22                    0.00712154 [mEh]       0.00446883 [kcal/mol]       0.01869760 [kJ/mol]
      delta HF,r (2)                0.02246476 [mEh]       0.01409685 [kcal/mol]       0.05898123 [kJ/mol]

    Dispersion                     -0.27212772 [mEh]      -0.17076272 [kcal/mol]      -0.71447124 [kJ/mol]
      Disp20                       -0.20292752 [mEh]      -0.12733894 [kcal/mol]      -0.53278614 [kJ/mol]
      Disp21                        0.00030706 [mEh]       0.00019268 [kcal/mol]       0.00080619 [kJ/mol]
      Disp22 (SDQ)                 -0.03834329 [mEh]      -0.02406078 [kcal/mol]      -0.10067029 [kJ/mol]
      Disp22 (T)                   -0.04051715 [mEh]      -0.02542490 [kcal/mol]      -0.10637777 [kJ/mol]
      Est. Disp22 (T)              -0.04765472 [mEh]      -0.02990379 [kcal/mol]      -0.12511745 [kJ/mol]
      Exch-Disp20                   0.01649075 [mEh]       0.01034810 [kcal/mol]       0.04329646 [kJ/mol]

  Total HF                         11.37468090 [mEh]       7.13772003 [kcal/mol]      29.86422059 [kJ/mol]
  Total SAPT0                      11.18824413 [mEh]       7.02072919 [kcal/mol]      29.37473091 [kJ/mol]
  Total SAPT2                      10.25384905 [mEh]       6.43438742 [kcal/mol]      26.92147697 [kJ/mol]
  Total SAPT2+                     10.16815810 [mEh]       6.38061554 [kcal/mol]      26.69649541 [kJ/mol]

  Special recipe for scaled SAPT0 (see Manual):
    Electrostatics sSAPT0          12.39516388 [mEh]       7.77808276 [kcal/mol]      32.54349828 [kJ/mol]
    Exchange sSAPT0                 0.09276071 [mEh]       0.05820822 [kcal/mol]       0.24354321 [kJ/mol]
    Induction sSAPT0               -1.11323651 [mEh]      -0.69856646 [kcal/mol]      -2.92280205 [kJ/mol]
    Dispersion sSAPT0              -0.18643437 [mEh]      -0.11698934 [kcal/mol]      -0.48948338 [kJ/mol]
  Total sSAPT0                     11.18825371 [mEh]       7.02073520 [kcal/mol]      29.37475606 [kJ/mol]
  --------------------------------------------------------------------------------------------------------

*** Psi4 exiting successfully. Buy a developer a beer!
