                               Psi4 1.9 release

  ==> Input File <==

--------------------------------------------------------------------------
MEMORY 60 GB

molecule dimer {
0 1
O      0.000000     0.000000     0.000000
H     -0.588538     0.756918     0.000000
H     -0.588538    -0.756918     0.000000
--
-1 1
F      3.003000     0.000000     0.000000

units ang
no_reorient
no_com
symmetry c1
}

set {
basis        aug-cc-pVTZ
scf_type     df
}

energy("sapt2+")
--------------------------------------------------------------------------

  //              Dimer HF             //
    Molecular point group: c1
  Charge       = -1
  Multiplicity = 1
  Basis Set: AUG-CC-PVTZ
    Blend: AUG-CC-PVTZ
  Basis Set: (AUG-CC-PVTZ AUX)
    Blend: AUG-CC-PVTZ-JKFIT
  @DF-RHF Final Energy:  -175.49132764340490
    Total Energy =                       -175.4913276434048726
 Dipole X            :        -55.1388894           48.8492767           -6.2896126
 Dipole Y            :         -0.0000000            0.0000000           -0.0000000
 Dipole Z            :         -0.0000000            0.0000000           -0.0000000
 Magnitude           :                                                    6.2896126
  //            Monomer A HF           //
    Molecular point group: c1
  Multiplicity = 1
  Basis Set: AUG-CC-PVTZ
    Blend: AUG-CC-PVTZ
  Basis Set: (AUG-CC-PVTZ AUX)
    Blend: AUG-CC-PVTZ-JKFIT
  @DF-RHF Final Energy:   -76.06048569965030
    Total Energy =                        -76.0604856996502861
  //            Monomer B HF           //
    Molecular point group: c1

    Geometry (in Angstrom), charge = -1, multiplicity = 1:

       Center              X                  Y                   Z               Mass
    ------------   -----------------  -----------------  -----------------  -----------------
      Gh(O)           0.000000000000     0.000000000000     0.000000000000    15.994914619570
      Gh(H)          -0.588538000000     0.756918000000     0.000000000000     1.007825032230
      Gh(H)          -0.588538000000    -0.756918000000     0.000000000000     1.007825032230
         F            3.003000000000     0.000000000000     0.000000000000    18.998403162730

  Charge       = -1
  Multiplicity = 1
  Basis Set: AUG-CC-PVTZ
    Blend: AUG-CC-PVTZ
  Basis Set: (AUG-CC-PVTZ AUX)
    Blend: AUG-CC-PVTZ-JKFIT

    Orbital Energies [Eh]
    ---------------------

    Doubly Occupied:

       1A    -25.833761     2A     -1.076037     3A     -0.180976
       4A     -0.180975     5A     -0.180964

  @DF-RHF Final Energy:   -99.45082522475462

   => Energetics <=

    Nuclear Repulsion Energy =              0.0000000000000000
    One-Electron Energy =                -143.9962241584052265
    Two-Electron Energy =                  44.5453989336506027
    Total Energy =                        -99.4508252247546238
 Dipole X            :        -56.7476253           51.0736280           -5.6739973
 Dipole Y            :         -0.0000000            0.0000000           -0.0000000
 Dipole Z            :         -0.0000000            0.0000000           -0.0000000
 Magnitude           :                                                    5.6739973

    SAPT Results
  --------------------------------------------------------------------------------------------------------
    Electrostatics                 18.61465971 [mEh]      11.68087532 [kcal/mol]      48.87278234 [kJ/mol]
      Elst10,r                     21.04713127 [mEh]      13.20727427 [kcal/mol]      55.25923553 [kJ/mol]
      Elst12,r                     -2.43247155 [mEh]      -1.52639894 [kcal/mol]      -6.38645319 [kJ/mol]

    Exchange                        3.98454787 [mEh]       2.50034154 [kcal/mol]      10.46142900 [kJ/mol]
      Exch10                        2.67408971 [mEh]       1.67801662 [kcal/mol]       7.02082156 [kJ/mol]
      Exch10(S^2)                   2.67079908 [mEh]       1.67595173 [kcal/mol]       7.01218203 [kJ/mol]
      Exch11(S^2)                  -0.15215990 [mEh]      -0.09548178 [kcal/mol]      -0.39949577 [kJ/mol]
      Exch12(S^2)                   1.46261807 [mEh]       0.91780670 [kcal/mol]       3.84010321 [kJ/mol]

    Induction                      -4.63668223 [mEh]      -2.90956203 [kcal/mol]     -12.17360753 [kJ/mol]
      Ind20,r                      -4.97397962 [mEh]      -3.12121933 [kcal/mol]     -13.05918169 [kJ/mol]
      Ind22                        -1.22882296 [mEh]      -0.77109805 [kcal/mol]      -3.22627424 [kJ/mol]
      Exch-Ind20,r                  1.33608724 [mEh]       0.83840740 [kcal/mol]       3.50789657 [kJ/mol]
      Exch-Ind22                    0.33008070 [mEh]       0.20712877 [kcal/mol]       0.86662676 [kJ/mol]
      delta HF,r (2)               -0.10004760 [mEh]      -0.06278081 [kcal/mol]      -0.26267493 [kJ/mol]

    Dispersion                     -1.93265102 [mEh]      -1.21275682 [kcal/mol]      -5.07417454 [kJ/mol]
      Disp20                       -1.67273911 [mEh]      -1.04965964 [kcal/mol]      -4.39177592 [kJ/mol]
      Disp21                        0.02668126 [mEh]       0.01674275 [kcal/mol]       0.07005165 [kJ/mol]
      Disp22 (SDQ)                 -0.27475677 [mEh]      -0.17241247 [kcal/mol]      -0.72137379 [kJ/mol]
      Disp22 (T)                   -0.31055573 [mEh]      -0.19487666 [kcal/mol]      -0.81536396 [kJ/mol]
      Est. Disp22 (T)              -0.37957744 [mEh]      -0.23818844 [kcal/mol]      -0.99658042 [kJ/mol]
      Exch-Disp20                   0.36774103 [mEh]       0.23076098 [kcal/mol]       0.96550394 [kJ/mol]

  Total HF                         19.98328100 [mEh]      12.53969814 [kcal/mol]      52.46609704 [kJ/mol]
  Total SAPT0                      18.67828292 [mEh]      11.72079949 [kcal/mol]      49.03982506 [kJ/mol]
  Total SAPT2                      16.65752727 [mEh]      10.45275617 [kcal/mol]      43.73433183 [kJ/mol]
  Total SAPT2+                     16.02987433 [mEh]      10.05889801 [kcal/mol]      42.08642927 [kJ/mol]

  Special recipe for scaled SAPT0 (see Manual):
    Electrostatics sSAPT0          21.04713127 [mEh]      13.20727427 [kcal/mol]      55.25923553 [kJ/mol]
    Exchange sSAPT0                 2.67408971 [mEh]       1.67801662 [kcal/mol]       7.02082156 [kJ/mol]
    Induction sSAPT0               -3.73299541 [mEh]      -2.34248998 [kcal/mol]      -9.80097809 [kJ/mol]
    Dispersion sSAPT0              -1.30363715 [mEh]      -0.81804466 [kcal/mol]      -3.42269886 [kJ/mol]
  Total sSAPT0                     18.68458842 [mEh]      11.72475625 [kcal/mol]      49.05638013 [kJ/mol]
  --------------------------------------------------------------------------------------------------------

*** Psi4 exiting successfully. Buy a developer a beer!
