                               Psi4 1.9 release

  ==> Input File <==

--------------------------------------------------------------------------
MEMORY 60 GB

molecule dimer {
0 1
O      0.000000     0.000000     0.000000
H     -0.588538     0.756918     0.000000
H     -0.588538    -0.756918     0.000000
--
-1 1
F      3.822000     0.000000     0.000000

units ang
no_reorient
no_com
symmetry c1
}

set {
basis        aug-cc-pVTZ
scf_type     df
}

energy("sapt2+")
--------------------------------------------------------------------------

  //              Dimer HF             //
    Molecular point group: c1
  Charge       = -1
  Multiplicity = 1
  Basis Set: AUG-CC-PVTZ
    Blend: AUG-CC-PVTZ
  Basis Set: (AUG-CC-PVTZ AUX)
    Blend: AUG-CC-PVTZ-JKFIT
  @DF-RHF Final Energy:  -175.49845098631397
    Total Energy =                       -175.4984509863139692
 Dipole X            :        -70.6658715           62.7784480           -7.8874235
 Dipole Y            :         -0.0000000            0.0000000           -0.0000000
 Dipole Z            :         -0.0000000            0.0000000           -0.0000000
 Magnitude           :                                                    7.8874235
  //            Monomer A HF           //
    Molecular point group: c1
  Multiplicity = 1
  Basis Set: AUG-CC-PVTZ
    Blend: AUG-CC-PVTZ
  Basis Set: (AUG-CC-PVTZ AUX)
    Blend: AUG-CC-PVTZ-JKFIT
  @DF-RHF Final Energy:   -76.06048250902285
    Total Energy =                        -76.0604825090228474
  //            Monomer B HF           //
    Molecular point group: c1

    Geometry (in Angstrom), charge = -1, multiplicity = 1:

       Center              X                  Y                   Z               Mass
    ------------   -----------------  -----------------  -----------------  -----------------
      Gh(O)           0.000000000000     0.000000000000     0.000000000000    15.994914619570
      Gh(H)          -0.588538000000     0.756918000000     0.000000000000     1.007825032230
      Gh(H)          -0.588538000000    -0.756918000000     0.000000000000     1.007825032230
         F            3.822000000000     0.000000000000     0.000000000000    18.998403162730

  Charge       = -1
  Multiplicity = 1
  Basis Set: AUG-CC-PVTZ
    Blend: AUG-CC-PVTZ
  Basis Set: (AUG-CC-PVTZ AUX)
    Blend: AUG-CC-PVTZ-JKFIT

    Orbital Energies [Eh]
    ---------------------

    Doubly Occupied:

       1A    -25.833743     2A     -1.076042     3A     -0.180974
       4A     -0.180973     5A     -0.180969

  @DF-RHF Final Energy:   -99.45081642522382

   => Energetics <=

    Nuclear Repulsion Energy =              0.0000000000000000
    One-Electron Energy =                -143.9962318484309378
    Two-Electron Energy =                  44.5454154232071176
    Total Energy =                        -99.4508164252238203
 Dipole X            :        -72.2249662           65.0027993           -7.2221670
 Dipole Y            :          0.0000000            0.0000000            0.0000000
 Dipole Z            :         -0.0000000            0.0000000           -0.0000000
 Magnitude           :                                                    7.2221670

    SAPT Results
  --------------------------------------------------------------------------------------------------------
    Electrostatics                 13.06642903 [mEh]       8.19930800 [kcal/mol]      34.30590469 [kJ/mol]
      Elst10,r                     14.10419165 [mEh]       8.85051388 [kcal/mol]      37.03055008 [kJ/mol]
      Elst12,r                     -1.03776262 [mEh]      -0.65120588 [kcal/mol]      -2.72464539 [kJ/mol]

    Exchange                        0.37783654 [mEh]       0.23709601 [kcal/mol]       0.99200970 [kJ/mol]
      Exch10                        0.20847674 [mEh]       0.13082113 [kcal/mol]       0.54735562 [kJ/mol]
      Exch10(S^2)                   0.20845498 [mEh]       0.13080748 [kcal/mol]       0.54729848 [kJ/mol]
      Exch11(S^2)                  -0.01649500 [mEh]      -0.01035077 [kcal/mol]      -0.04330763 [kJ/mol]
      Exch12(S^2)                   0.18585480 [mEh]       0.11662565 [kcal/mol]       0.48796171 [kJ/mol]

    Induction                      -1.70533738 [mEh]      -1.07011536 [kcal/mol]      -4.47736267 [kJ/mol]
      Ind20,r                      -1.60363704 [mEh]      -1.00629744 [kcal/mol]      -4.21034847 [kJ/mol]
      Ind22                        -0.25831890 [mEh]      -0.16209756 [kcal/mol]      -0.67821618 [kJ/mol]
      Exch-Ind20,r                  0.10989347 [mEh]       0.06895919 [kcal/mol]       0.28852527 [kJ/mol]
      Exch-Ind22                    0.01770199 [mEh]       0.01110816 [kcal/mol]       0.04647656 [kJ/mol]
      delta HF,r (2)                0.02902311 [mEh]       0.01821227 [kcal/mol]       0.07620016 [kJ/mol]

    Dispersion                     -0.43301159 [mEh]      -0.27171887 [kcal/mol]      -1.13687177 [kJ/mol]
      Disp20                       -0.32856108 [mEh]      -0.20617519 [kcal/mol]      -0.86263700 [kJ/mol]
      Disp21                        0.00044440 [mEh]       0.00027887 [kcal/mol]       0.00116678 [kJ/mol]
      Disp22 (SDQ)                 -0.06259320 [mEh]      -0.03927783 [kcal/mol]      -0.16433843 [kJ/mol]
      Disp22 (T)                   -0.06531536 [mEh]      -0.04098600 [kcal/mol]      -0.17148544 [kJ/mol]
      Est. Disp22 (T)              -0.07796924 [mEh]      -0.04892644 [kcal/mol]      -0.20470822 [kJ/mol]
      Exch-Disp20                   0.03566753 [mEh]       0.02238172 [kcal/mol]       0.09364510 [kJ/mol]

  Total HF                         12.84794793 [mEh]       8.06220905 [kcal/mol]      33.73228265 [kJ/mol]
  Total SAPT0                      12.55505439 [mEh]       7.87841557 [kcal/mol]      32.96329075 [kJ/mol]
  Total SAPT2                      11.44603464 [mEh]       7.18249518 [kcal/mol]      30.05155982 [kJ/mol]
  Total SAPT2+                     11.30591660 [mEh]       7.09456978 [kcal/mol]      29.68367995 [kJ/mol]

  Special recipe for scaled SAPT0 (see Manual):
    Electrostatics sSAPT0          14.10419165 [mEh]       8.85051388 [kcal/mol]      37.03055008 [kJ/mol]
    Exchange sSAPT0                 0.20847674 [mEh]       0.13082113 [kcal/mol]       0.54735562 [kJ/mol]
    Induction sSAPT0               -1.46468604 [mEh]      -0.91910437 [kcal/mol]      -3.84553267 [kJ/mol]
    Dispersion sSAPT0              -0.29288237 [mEh]      -0.18378646 [kcal/mol]      -0.76896256 [kJ/mol]
  Total sSAPT0                     12.55509998 [mEh]       7.87844418 [kcal/mol]      32.96341047 [kJ/mol]
  --------------------------------------------------------------------------------------------------------

*** Psi4 exiting successfully. Buy a developer a beer!
