                               Psi4 1.9 release

  ==> Input File <==

--------------------------------------------------------------------------
MEMORY 60 GB

molecule dimer {
0 1
O      0.000000     0.000000     0.000000
H     -0.588538     0.756918     0.000000
H     -0.588538    -0.756918     0.000000
--
-1 1
Cl     6.420000     0.000000     0.000000

units ang
no_reorient
no_com
symmetry c1
}

set {
basis        aug-cc-pVTZ
scf_type     df
}

energy("sapt2+")
--------------------------------------------------------------------------

  //              Dimer HF             //
    Molecular point group: c1
  Charge       = -1
  Multiplicity = 1
  Basis Set: AUG-CC-PVTZ
    Blend: AUG-CC-PVTZ
  Basis Set: (AUG-CC-PVTZ AUX)
    Blend: AUG-CC-PVTZ-JKFIT
  @DF-RHF Final Energy:  -535.62897175507260
    Total Energy =                       -535.6289717550725982
 Dipole X            :       -216.9014274          204.0203581          -12.8810693
 Dipole Y            :          0.0000000            0.0000000            0.0000000
 Dipole Z            :          0.0000000            0.0000000            0.0000000
 Magnitude           :                                                   12.8810693
  //            Monomer A HF           //
    Molecular point group: c1
  Multiplicity = 1
  Basis Set: AUG-CC-PVTZ
    Blend: AUG-CC-PVTZ
  Basis Set: (AUG-CC-PVTZ AUX)
    Blend: AUG-CC-PVTZ-JKFIT
  @DF-RHF Final Energy:   -76.06048076117403
    Total Energy =                        -76.0604807611740341
  //            Monomer B HF           //
    Molecular point group: c1

    Geometry (in Angstrom), charge = -1, multiplicity = 1:

       Center              X                  Y                   Z               Mass
    ------------   -----------------  -----------------  -----------------  -----------------
      Gh(O)           0.000000000000     0.000000000000     0.000000000000    15.994914619570
      Gh(H)          -0.588538000000     0.756918000000     0.000000000000     1.007825032230
      Gh(H)          -0.588538000000    -0.756918000000     0.000000000000     1.007825032230
         CL           6.420000000000     0.000000000000     0.000000000000    34.968852682000

  Charge       = -1
  Multiplicity = 1
  Basis Set: AUG-CC-PVTZ
    Blend: AUG-CC-PVTZ
  Basis Set: (AUG-CC-PVTZ AUX)
    Blend: AUG-CC-PVTZ-JKFIT

    Orbital Energies [Eh]
    ---------------------

    Doubly Occupied:

       1A   -104.505970     2A    -10.229746     3A     -7.695775
       4A     -7.695775     5A     -7.695773     6A     -0.733513
       7A     -0.150338     8A     -0.150338     9A     -0.150337

  @DF-RHF Final Energy:  -459.57348262582741

   => Energetics <=

    Nuclear Repulsion Energy =              0.0000000000000000
    One-Electron Energy =                -641.1318456751569101
    Two-Electron Energy =                 181.5583630493295288
    Total Energy =                       -459.5734826258274097
 Dipole X            :       -218.3770122          206.2447093          -12.1323029
 Dipole Y            :         -0.0000000            0.0000000           -0.0000000
 Dipole Z            :          0.0000000            0.0000000            0.0000000
 Magnitude           :                                                   12.1323029

    SAPT Results
  --------------------------------------------------------------------------------------------------------
    Electrostatics                  4.84946129 [mEh]       3.04308290 [kcal/mol]      12.73225885 [kJ/mol]
      Elst10,r                      5.18244469 [mEh]       3.25203314 [kcal/mol]      13.60650665 [kJ/mol]
      Elst12,r                     -0.33298340 [mEh]      -0.20895024 [kcal/mol]      -0.87424779 [kJ/mol]

    Exchange                        0.00191816 [mEh]       0.00120366 [kcal/mol]       0.00503613 [kJ/mol]
      Exch10                        0.00131598 [mEh]       0.00082579 [kcal/mol]       0.00345510 [kJ/mol]
      Exch10(S^2)                   0.00131598 [mEh]       0.00082579 [kcal/mol]       0.00345509 [kJ/mol]
      Exch11(S^2)                  -0.00009907 [mEh]      -0.00006217 [kcal/mol]      -0.00026012 [kJ/mol]
      Exch12(S^2)                   0.00070126 [mEh]       0.00044005 [kcal/mol]       0.00184115 [kJ/mol]

    Induction                      -0.21121632 [mEh]      -0.13254024 [kcal/mol]      -0.55454837 [kJ/mol]
      Ind20,r                      -0.19507002 [mEh]      -0.12240828 [kcal/mol]      -0.51215625 [kJ/mol]
      Ind22                        -0.01916748 [mEh]      -0.01202777 [kcal/mol]      -0.05032421 [kJ/mol]
      Exch-Ind20,r                  0.00081308 [mEh]       0.00051022 [kcal/mol]       0.00213475 [kJ/mol]
      Exch-Ind22                    0.00007989 [mEh]       0.00005013 [kcal/mol]       0.00020976 [kJ/mol]
      delta HF,r (2)                0.00212820 [mEh]       0.00133547 [kcal/mol]       0.00558759 [kJ/mol]

    Dispersion                     -0.03614152 [mEh]      -0.02267915 [kcal/mol]      -0.09488954 [kJ/mol]
      Disp20                       -0.03371987 [mEh]      -0.02115953 [kcal/mol]      -0.08853149 [kJ/mol]
      Disp21                        0.00428027 [mEh]       0.00268591 [kcal/mol]       0.01123784 [kJ/mol]
      Disp22 (SDQ)                 -0.00035734 [mEh]      -0.00022424 [kcal/mol]      -0.00093820 [kJ/mol]
      Disp22 (T)                   -0.00617314 [mEh]      -0.00387371 [kcal/mol]      -0.01620758 [kJ/mol]
      Est. Disp22 (T)              -0.00663147 [mEh]      -0.00416131 [kcal/mol]      -0.01741092 [kJ/mol]
      Exch-Disp20                   0.00028689 [mEh]       0.00018003 [kcal/mol]       0.00075324 [kJ/mol]

  Total HF                          4.99163193 [mEh]       3.13229632 [kcal/mol]      13.10552782 [kJ/mol]
  Total SAPT0                       4.95819896 [mEh]       3.11131682 [kcal/mol]      13.01774957 [kJ/mol]
  Total SAPT2                       4.60673015 [mEh]       2.89076681 [kcal/mol]      12.09496835 [kJ/mol]
  Total SAPT2+                      4.60402161 [mEh]       2.88906718 [kcal/mol]      12.08785707 [kJ/mol]

  Special recipe for scaled SAPT0 (see Manual):
    Electrostatics sSAPT0           5.18244469 [mEh]       3.25203314 [kcal/mol]      13.60650665 [kJ/mol]
    Exchange sSAPT0                 0.00131598 [mEh]       0.00082579 [kcal/mol]       0.00345510 [kJ/mol]
    Induction sSAPT0               -0.19212873 [mEh]      -0.12056260 [kcal/mol]      -0.50443392 [kJ/mol]
    Dispersion sSAPT0              -0.03343297 [mEh]      -0.02097951 [kcal/mol]      -0.08777826 [kJ/mol]
  Total sSAPT0                      4.95819896 [mEh]       3.11131682 [kcal/mol]      13.01774957 [kJ/mol]
  --------------------------------------------------------------------------------------------------------

*** Psi4 exiting successfully. Buy a developer a beer!
