                               Psi4 1.9 release

  ==> Input File <==

--------------------------------------------------------------------------
MEMORY 60 GB

molecule dimer {
0 1
O      0.000000     0.000000     0.000000
H     -0.588538     0.756918     0.000000
H     -0.588538    -0.756918     0.000000
--
-1 1
Cl     3.210000     0.000000     0.000000

units ang
no_reorient
no_com
symmetry c1
}

set {
basis        aug-cc-pVTZ
scf_type     df
}

energy("sapt2+")
--------------------------------------------------------------------------

  //              Dimer HF             //
    Molecular point group: c1
  Charge       = -1
  Multiplicity = 1
  Basis Set: AUG-CC-PVTZ
    Blend: AUG-CC-PVTZ
  Basis Set: (AUG-CC-PVTZ AUX)
    Blend: AUG-CC-PVTZ-JKFIT
  @DF-RHF Final Energy:  -535.61461876229566
    Total Energy =                       -535.6146187622956631
 Dipole X            :       -107.7161958          100.8980034           -6.8181924
 Dipole Y            :          0.0000000            0.0000000            0.0000000
 Dipole Z            :         -0.0000000            0.0000000           -0.0000000
 Magnitude           :                                                    6.8181924
  //            Monomer A HF           //
    Molecular point group: c1
  Multiplicity = 1
  Basis Set: AUG-CC-PVTZ
    Blend: AUG-CC-PVTZ
  Basis Set: (AUG-CC-PVTZ AUX)
    Blend: AUG-CC-PVTZ-JKFIT
  @DF-RHF Final Energy:   -76.06049025893759
    Total Energy =                        -76.0604902589376053
  //            Monomer B HF           //
    Molecular point group: c1

    Geometry (in Angstrom), charge = -1, multiplicity = 1:

       Center              X                  Y                   Z               Mass
    ------------   -----------------  -----------------  -----------------  -----------------
      Gh(O)           0.000000000000     0.000000000000     0.000000000000    15.994914619570
      Gh(H)          -0.588538000000     0.756918000000     0.000000000000     1.007825032230
      Gh(H)          -0.588538000000    -0.756918000000     0.000000000000     1.007825032230
         CL           3.210000000000     0.000000000000     0.000000000000    34.968852682000

  Charge       = -1
  Multiplicity = 1
  Basis Set: AUG-CC-PVTZ
    Blend: AUG-CC-PVTZ
  Basis Set: (AUG-CC-PVTZ AUX)
    Blend: AUG-CC-PVTZ-JKFIT

    Orbital Energies [Eh]
    ---------------------

    Doubly Occupied:

       1A   -104.506081     2A    -10.229770     3A     -7.695808
       4A     -7.695807     5A     -7.695793     6A     -0.733507
       7A     -0.150340     8A     -0.150331     9A     -0.150330

  @DF-RHF Final Energy:  -459.57349194657689

   => Energetics <=

    Nuclear Repulsion Energy =              0.0000000000000000
    One-Electron Energy =                -641.1314493015674998
    Two-Electron Energy =                 181.5579573549906058
    Total Energy =                       -459.5734919465768940
 Dipole X            :       -109.1882746          103.1223547           -6.0659199
 Dipole Y            :          0.0000000            0.0000000            0.0000000
 Dipole Z            :         -0.0000000            0.0000000           -0.0000000
 Magnitude           :                                                    6.0659199

    SAPT Results
  --------------------------------------------------------------------------------------------------------
    Electrostatics                 14.32729431 [mEh]       8.99051292 [kcal/mol]      37.61630604 [kJ/mol]
      Elst10,r                     16.32869840 [mEh]      10.24641294 [kcal/mol]      42.87099175 [kJ/mol]
      Elst12,r                     -2.00140409 [mEh]      -1.25590003 [kcal/mol]      -5.25468571 [kJ/mol]

    Exchange                        7.03708309 [mEh]       4.41583631 [kcal/mol]      18.47585911 [kJ/mol]
      Exch10                        6.17188941 [mEh]       3.87291908 [kcal/mol]      16.20429342 [kJ/mol]
      Exch10(S^2)                   6.14879158 [mEh]       3.85842497 [kcal/mol]      16.14365008 [kJ/mol]
      Exch11(S^2)                  -0.10412506 [mEh]      -0.06533946 [kcal/mol]      -0.27338031 [kJ/mol]
      Exch12(S^2)                   0.96931874 [mEh]       0.60825669 [kcal/mol]       2.54494600 [kJ/mol]

    Induction                      -3.50253675 [mEh]      -2.19787499 [kcal/mol]      -9.19590896 [kJ/mol]
      Ind20,r                      -6.52434911 [mEh]      -4.09409087 [kcal/mol]     -17.12967622 [kJ/mol]
      Ind22                        -0.89323635 [mEh]      -0.56051427 [kcal/mol]      -2.34519170 [kJ/mol]
      Exch-Ind20,r                  3.85546314 [mEh]       2.41933965 [kcal/mol]      10.12251708 [kJ/mol]
      Exch-Ind22                    0.52784420 [mEh]       0.33122723 [kcal/mol]       1.38585474 [kJ/mol]
      delta HF,r (2)               -0.46825863 [mEh]      -0.29383673 [kcal/mol]      -1.22941287 [kJ/mol]

    Dispersion                     -2.97099261 [mEh]      -1.86432601 [kcal/mol]      -7.80034002 [kJ/mol]
      Disp20                       -3.47756315 [mEh]      -2.18220382 [kcal/mol]      -9.13034079 [kJ/mol]
      Disp21                        0.32394803 [mEh]       0.20328046 [kcal/mol]       0.85052543 [kJ/mol]
      Disp22 (SDQ)                 -0.04420694 [mEh]      -0.02774028 [kcal/mol]      -0.11606532 [kJ/mol]
      Disp22 (T)                   -0.51216950 [mEh]      -0.32139122 [kcal/mol]      -1.34470085 [kJ/mol]
      Est. Disp22 (T)              -0.61897577 [mEh]      -0.38841316 [kcal/mol]      -1.62512067 [kJ/mol]
      Exch-Disp20                   0.84580523 [mEh]       0.53075079 [kcal/mol]       2.22066132 [kJ/mol]

  Total HF                         19.36344322 [mEh]      12.15074406 [kcal/mol]      50.83871317 [kJ/mol]
  Total SAPT0                      16.73168530 [mEh]      10.49929104 [kcal/mol]      43.92903370 [kJ/mol]
  Total SAPT2                      15.23008274 [mEh]       9.55702120 [kcal/mol]      39.98657672 [kJ/mol]
  Total SAPT2+                     14.89084805 [mEh]       9.34414822 [kcal/mol]      39.09591617 [kJ/mol]

  Special recipe for scaled SAPT0 (see Manual):
    Electrostatics sSAPT0          16.32869840 [mEh]      10.24641294 [kcal/mol]      42.87099175 [kJ/mol]
    Exchange sSAPT0                 6.17188941 [mEh]       3.87291908 [kcal/mol]      16.20429342 [kJ/mol]
    Induction sSAPT0               -3.09353223 [mEh]      -1.94122078 [kcal/mol]      -8.12206776 [kJ/mol]
    Dispersion sSAPT0              -2.62219031 [mEh]      -1.64544926 [kcal/mol]      -6.88455971 [kJ/mol]
  Total sSAPT0                     16.78486527 [mEh]      10.53266197 [kcal/mol]      44.06865769 [kJ/mol]
  --------------------------------------------------------------------------------------------------------

*** Psi4 exiting successfully. Buy a developer a beer!
