                               Psi4 1.9 release

  ==> Input File <==

--------------------------------------------------------------------------
MEMORY 60 GB

molecule dimer {
0 1
O      0.000000     0.000000     0.000000
H     -0.588538     0.756918     0.000000
H     -0.588538    -0.756918     0.000000
--
-1 1
Cl     4.173000     0.000000     0.000000

units ang
no_reorient
no_com
symmetry c1
}

set {
basis        aug-cc-pVTZ
scf_type     df
}

energy("sapt2+")
--------------------------------------------------------------------------

  //              Dimer HF             //
    Molecular point group: c1
  Charge       = -1
  Multiplicity = 1
  Basis Set: AUG-CC-PVTZ
    Blend: AUG-CC-PVTZ
  Basis Set: (AUG-CC-PVTZ AUX)
    Blend: AUG-CC-PVTZ-JKFIT
  @DF-RHF Final Energy:  -535.62291540481635
    Total Energy =                       -535.6229154048163537
 Dipole X            :       -140.4576491          131.8347098           -8.6229393
 Dipole Y            :         -0.0000000            0.0000000           -0.0000000
 Dipole Z            :          0.0000000            0.0000000            0.0000000
 Magnitude           :                                                    8.6229393
  //            Monomer A HF           //
    Molecular point group: c1
  Multiplicity = 1
  Basis Set: AUG-CC-PVTZ
    Blend: AUG-CC-PVTZ
  Basis Set: (AUG-CC-PVTZ AUX)
    Blend: AUG-CC-PVTZ-JKFIT
  @DF-RHF Final Energy:   -76.06048323634262
    Total Energy =                        -76.0604832363426056
  //            Monomer B HF           //
    Molecular point group: c1

    Geometry (in Angstrom), charge = -1, multiplicity = 1:

       Center              X                  Y                   Z               Mass
    ------------   -----------------  -----------------  -----------------  -----------------
      Gh(O)           0.000000000000     0.000000000000     0.000000000000    15.994914619570
      Gh(H)          -0.588538000000     0.756918000000     0.000000000000     1.007825032230
      Gh(H)          -0.588538000000    -0.756918000000     0.000000000000     1.007825032230
         CL           4.173000000000     0.000000000000     0.000000000000    34.968852682000

  Charge       = -1
  Multiplicity = 1
  Basis Set: AUG-CC-PVTZ
    Blend: AUG-CC-PVTZ
  Basis Set: (AUG-CC-PVTZ AUX)
    Blend: AUG-CC-PVTZ-JKFIT

    Orbital Energies [Eh]
    ---------------------

    Doubly Occupied:

       1A   -104.505994     2A    -10.229749     3A     -7.695782
       4A     -7.695782     5A     -7.695778     6A     -0.733511
       7A     -0.150337     8A     -0.150336     9A     -0.150335

  @DF-RHF Final Energy:  -459.57348489544887

   => Energetics <=

    Nuclear Repulsion Energy =              0.0000000000000000
    One-Electron Energy =                -641.1317599787324752
    Two-Electron Energy =                 181.5582750832835757
    Total Energy =                       -459.5734848954489280
 Dipole X            :       -141.9446676          134.0590611           -7.8856066
 Dipole Y            :         -0.0000000            0.0000000           -0.0000000
 Dipole Z            :          0.0000000            0.0000000            0.0000000
 Magnitude           :                                                    7.8856066

    SAPT Results
  --------------------------------------------------------------------------------------------------------
    Electrostatics                 10.89738607 [mEh]       6.83821300 [kcal/mol]      28.61108319 [kJ/mol]
      Elst10,r                     11.76357694 [mEh]       7.38175597 [kcal/mol]      30.88526699 [kJ/mol]
      Elst12,r                     -0.86619087 [mEh]      -0.54354297 [kcal/mol]      -2.27418380 [kJ/mol]

    Exchange                        0.50618275 [mEh]       0.31763447 [kcal/mol]       1.32898263 [kJ/mol]
      Exch10                        0.41018854 [mEh]       0.25739720 [kcal/mol]       1.07694987 [kJ/mol]
      Exch10(S^2)                   0.41006935 [mEh]       0.25732240 [kcal/mol]       1.07663694 [kJ/mol]
      Exch11(S^2)                  -0.01713358 [mEh]      -0.01075148 [kcal/mol]      -0.04498421 [kJ/mol]
      Exch12(S^2)                   0.11312779 [mEh]       0.07098876 [kcal/mol]       0.29701697 [kJ/mol]

    Induction                      -1.25222308 [mEh]      -0.78578184 [kcal/mol]      -3.28771124 [kJ/mol]
      Ind20,r                      -1.38429419 [mEh]      -0.86865772 [kcal/mol]      -3.63446389 [kJ/mol]
      Ind22                        -0.16178282 [mEh]      -0.10152026 [kcal/mol]      -0.42476075 [kJ/mol]
      Exch-Ind20,r                  0.26181382 [mEh]       0.16429065 [kcal/mol]       0.68739209 [kJ/mol]
      Exch-Ind22                    0.03059825 [mEh]       0.01920069 [kcal/mol]       0.08033569 [kJ/mol]
      delta HF,r (2)                0.00144187 [mEh]       0.00090478 [kcal/mol]       0.00378562 [kJ/mol]

    Dispersion                     -0.62371237 [mEh]      -0.39138542 [kcal/mol]      -1.63755660 [kJ/mol]
      Disp20                       -0.61694503 [mEh]      -0.38713885 [kcal/mol]      -1.61978895 [kJ/mol]
      Disp21                        0.05345978 [mEh]       0.03354652 [kcal/mol]       0.14035863 [kJ/mol]
      Disp22 (SDQ)                 -0.01321860 [mEh]      -0.00829480 [kcal/mol]      -0.03470543 [kJ/mol]
      Disp22 (T)                   -0.10252782 [mEh]      -0.06433718 [kcal/mol]      -0.26918674 [kJ/mol]
      Est. Disp22 (T)              -0.12011263 [mEh]      -0.07537182 [kcal/mol]      -0.31535568 [kJ/mol]
      Exch-Disp20                   0.07310412 [mEh]       0.04587352 [kcal/mol]       0.19193483 [kJ/mol]

  Total HF                         11.05272698 [mEh]       6.93569089 [kcal/mol]      29.01893068 [kJ/mol]
  Total SAPT0                      10.50888606 [mEh]       6.59442556 [kcal/mol]      27.59107655 [kJ/mol]
  Total SAPT2                       9.60750483 [mEh]       6.02880030 [kcal/mol]      25.22450045 [kJ/mol]
  Total SAPT2+                      9.52763338 [mEh]       5.97868021 [kcal/mol]      25.01479798 [kJ/mol]

  Special recipe for scaled SAPT0 (see Manual):
    Electrostatics sSAPT0          11.76357694 [mEh]       7.38175597 [kcal/mol]      30.88526699 [kJ/mol]
    Exchange sSAPT0                 0.41018854 [mEh]       0.25739720 [kcal/mol]       1.07694987 [kJ/mol]
    Induction sSAPT0               -1.12081015 [mEh]      -0.70331898 [kcal/mol]      -2.94268663 [kJ/mol]
    Dispersion sSAPT0              -0.54377715 [mEh]      -0.34122531 [kcal/mol]      -1.42768672 [kJ/mol]
  Total sSAPT0                     10.50917818 [mEh]       6.59460887 [kcal/mol]      27.59184351 [kJ/mol]
  --------------------------------------------------------------------------------------------------------

*** Psi4 exiting successfully. Buy a developer a beer!
