                               Psi4 1.9 release

  ==> Input File <==

--------------------------------------------------------------------------
MEMORY 60 GB

molecule dimer {
0 1
O      0.000000     0.000000     0.000000
H     -0.588538     0.756918     0.000000
H     -0.588538    -0.756918     0.000000
--
-1 1
Cl     4.815000     0.000000     0.000000

units ang
no_reorient
no_com
symmetry c1
}

set {
basis        aug-cc-pVTZ
scf_type     df
}

energy("sapt2+")
--------------------------------------------------------------------------

  //              Dimer HF             //
    Molecular point group: c1
  Charge       = -1
  Multiplicity = 1
  Basis Set: AUG-CC-PVTZ
    Blend: AUG-CC-PVTZ
  Basis Set: (AUG-CC-PVTZ AUX)
    Blend: AUG-CC-PVTZ-JKFIT
  @DF-RHF Final Energy:  -535.62546411486301
    Total Energy =                       -535.6254641148630071
 Dipole X            :       -162.2971041          152.4591807           -9.8379234
 Dipole Y            :         -0.0000000            0.0000000           -0.0000000
 Dipole Z            :          0.0000000            0.0000000            0.0000000
 Magnitude           :                                                    9.8379234
  //            Monomer A HF           //
    Molecular point group: c1
  Multiplicity = 1
  Basis Set: AUG-CC-PVTZ
    Blend: AUG-CC-PVTZ
  Basis Set: (AUG-CC-PVTZ AUX)
    Blend: AUG-CC-PVTZ-JKFIT
  @DF-RHF Final Energy:   -76.06048115414461
    Total Energy =                        -76.0604811541446111
  //            Monomer B HF           //
    Molecular point group: c1

    Geometry (in Angstrom), charge = -1, multiplicity = 1:

       Center              X                  Y                   Z               Mass
    ------------   -----------------  -----------------  -----------------  -----------------
      Gh(O)           0.000000000000     0.000000000000     0.000000000000    15.994914619570
      Gh(H)          -0.588538000000     0.756918000000     0.000000000000     1.007825032230
      Gh(H)          -0.588538000000    -0.756918000000     0.000000000000     1.007825032230
         CL           4.815000000000     0.000000000000     0.000000000000    34.968852682000

  Charge       = -1
  Multiplicity = 1
  Basis Set: AUG-CC-PVTZ
    Blend: AUG-CC-PVTZ
  Basis Set: (AUG-CC-PVTZ AUX)
    Blend: AUG-CC-PVTZ-JKFIT

    Orbital Energies [Eh]
    ---------------------

    Doubly Occupied:

       1A   -104.505979     2A    -10.229746     3A     -7.695777
       4A     -7.695777     5A     -7.695775     6A     -0.733512
       7A     -0.150337     8A     -0.150336     9A     -0.150336

  @DF-RHF Final Energy:  -459.57348393079377

   => Energetics <=

    Nuclear Repulsion Energy =              0.0000000000000000
    One-Electron Energy =                -641.1318262610316197
    Two-Electron Energy =                 181.5583423302377923
    Total Energy =                       -459.5734839307938273
 Dipole X            :       -163.7824340          154.6835320           -9.0989020
 Dipole Y            :          0.0000000            0.0000000            0.0000000
 Dipole Z            :          0.0000000            0.0000000            0.0000000
 Magnitude           :                                                    9.0989020

    SAPT Results
  --------------------------------------------------------------------------------------------------------
    Electrostatics                  8.44326743 [mEh]       5.29823030 [kcal/mol]      22.16779558 [kJ/mol]
      Elst10,r                      9.05068405 [mEh]       5.67938998 [kcal/mol]      23.76256769 [kJ/mol]
      Elst12,r                     -0.60741662 [mEh]      -0.38115968 [kcal/mol]      -1.59477211 [kJ/mol]

    Exchange                        0.09695558 [mEh]       0.06084054 [kcal/mol]       0.25455684 [kJ/mol]
      Exch10                        0.07477717 [mEh]       0.04692338 [kcal/mol]       0.19632743 [kJ/mol]
      Exch10(S^2)                   0.07477280 [mEh]       0.04692064 [kcal/mol]       0.19631597 [kJ/mol]
      Exch11(S^2)                  -0.00414890 [mEh]      -0.00260348 [kcal/mol]      -0.01089294 [kJ/mol]
      Exch12(S^2)                   0.02632731 [mEh]       0.01652064 [kcal/mol]       0.06912235 [kJ/mol]

    Induction                      -0.69133602 [mEh]      -0.43381990 [kcal/mol]      -1.81510247 [kJ/mol]
      Ind20,r                      -0.68276038 [mEh]      -0.42843861 [kcal/mol]      -1.79258713 [kJ/mol]
      Ind22                        -0.07185838 [mEh]      -0.04509181 [kcal/mol]      -0.18866415 [kJ/mol]
      Exch-Ind20,r                  0.04763563 [mEh]       0.02989181 [kcal/mol]       0.12506733 [kJ/mol]
      Exch-Ind22                    0.00501350 [mEh]       0.00314602 [kcal/mol]       0.01316294 [kJ/mol]
      delta HF,r (2)                0.01063361 [mEh]       0.00667269 [kcal/mol]       0.02791854 [kJ/mol]

    Dispersion                     -0.24357887 [mEh]      -0.15284805 [kcal/mol]      -0.63951623 [kJ/mol]
      Disp20                       -0.22972518 [mEh]      -0.14415472 [kcal/mol]      -0.60314337 [kJ/mol]
      Disp21                        0.02222662 [mEh]       0.01394741 [kcal/mol]       0.05835597 [kJ/mol]
      Disp22 (SDQ)                 -0.00491934 [mEh]      -0.00308693 [kcal/mol]      -0.01291571 [kJ/mol]
      Disp22 (T)                   -0.03999973 [mEh]      -0.02510021 [kcal/mol]      -0.10501928 [kJ/mol]
      Est. Disp22 (T)              -0.04552188 [mEh]      -0.02856541 [kcal/mol]      -0.11951767 [kJ/mol]
      Exch-Disp20                   0.01436091 [mEh]       0.00901160 [kcal/mol]       0.03770455 [kJ/mol]

  Total HF                          8.50097008 [mEh]       5.33443926 [kcal/mol]      22.31929386 [kJ/mol]
  Total SAPT0                       8.28560581 [mEh]       5.19929614 [kcal/mol]      21.75385505 [kJ/mol]
  Total SAPT2                       7.63352272 [mEh]       4.79010782 [kcal/mol]      20.04181113 [kJ/mol]
  Total SAPT2+                      7.60530812 [mEh]       4.77240290 [kcal/mol]      19.96773372 [kJ/mol]

  Special recipe for scaled SAPT0 (see Manual):
    Electrostatics sSAPT0           9.05068405 [mEh]       5.67938998 [kcal/mol]      23.76256769 [kJ/mol]
    Exchange sSAPT0                 0.07477717 [mEh]       0.04692338 [kcal/mol]       0.19632743 [kJ/mol]
    Induction sSAPT0               -0.62448279 [mEh]      -0.39186887 [kcal/mol]      -1.63957935 [kJ/mol]
    Dispersion sSAPT0              -0.21536175 [mEh]      -0.13514154 [kcal/mol]      -0.56543221 [kJ/mol]
  Total sSAPT0                      8.28561667 [mEh]       5.19930295 [kcal/mol]      21.75388356 [kJ/mol]
  --------------------------------------------------------------------------------------------------------

*** Psi4 exiting successfully. Buy a developer a beer!
