                               Psi4 1.9 release

  ==> Input File <==

--------------------------------------------------------------------------
MEMORY 60 GB

molecule dimer {
0 1
O      0.000000     0.000000     0.000000
H     -0.588538     0.756918     0.000000
H     -0.588538    -0.756918     0.000000
--
-1 1
Cl     3.531000     0.000000     0.000000

units ang
no_reorient
no_com
symmetry c1
}

set {
basis        aug-cc-pVTZ
scf_type     df
}

energy("sapt2+")
--------------------------------------------------------------------------

  //              Dimer HF             //
    Molecular point group: c1
  Charge       = -1
  Multiplicity = 1
  Basis Set: AUG-CC-PVTZ
    Blend: AUG-CC-PVTZ
  Basis Set: (AUG-CC-PVTZ AUX)
    Blend: AUG-CC-PVTZ-JKFIT
  @DF-RHF Final Energy:  -535.61857772679843
    Total Energy =                       -535.6185777267984349
 Dipole X            :       -118.6254134          111.2102389           -7.4151745
 Dipole Y            :         -0.0000000            0.0000000           -0.0000000
 Dipole Z            :         -0.0000000            0.0000000           -0.0000000
 Magnitude           :                                                    7.4151745
  //            Monomer A HF           //
    Molecular point group: c1
  Multiplicity = 1
  Basis Set: AUG-CC-PVTZ
    Blend: AUG-CC-PVTZ
  Basis Set: (AUG-CC-PVTZ AUX)
    Blend: AUG-CC-PVTZ-JKFIT
  @DF-RHF Final Energy:   -76.06048537338242
    Total Energy =                        -76.0604853733824200
  //            Monomer B HF           //
    Molecular point group: c1

    Geometry (in Angstrom), charge = -1, multiplicity = 1:

       Center              X                  Y                   Z               Mass
    ------------   -----------------  -----------------  -----------------  -----------------
      Gh(O)           0.000000000000     0.000000000000     0.000000000000    15.994914619570
      Gh(H)          -0.588538000000     0.756918000000     0.000000000000     1.007825032230
      Gh(H)          -0.588538000000    -0.756918000000     0.000000000000     1.007825032230
         CL           3.531000000000     0.000000000000     0.000000000000    34.968852682000

  Charge       = -1
  Multiplicity = 1
  Basis Set: AUG-CC-PVTZ
    Blend: AUG-CC-PVTZ
  Basis Set: (AUG-CC-PVTZ AUX)
    Blend: AUG-CC-PVTZ-JKFIT

    Orbital Energies [Eh]
    ---------------------

    Doubly Occupied:

       1A   -104.506039     2A    -10.229758     3A     -7.695794
       4A     -7.695793     5A     -7.695784     6A     -0.733507
       7A     -0.150340     8A     -0.150331     9A     -0.150330

  @DF-RHF Final Energy:  -459.57348984866292

   => Energetics <=

    Nuclear Repulsion Energy =              0.0000000000000000
    One-Electron Energy =                -641.1316236392623296
    Two-Electron Energy =                 181.5581337905994133
    Total Energy =                       -459.5734898486629163
 Dipole X            :       -120.1069109          113.4345901           -6.6723208
 Dipole Y            :         -0.0000000            0.0000000           -0.0000000
 Dipole Z            :         -0.0000000            0.0000000           -0.0000000
 Magnitude           :                                                    6.6723208

    SAPT Results
  --------------------------------------------------------------------------------------------------------
    Electrostatics                 13.69604308 [mEh]       8.59439679 [kcal/mol]      35.95895616 [kJ/mol]
      Elst10,r                     15.13025013 [mEh]       9.49437530 [kcal/mol]      39.72446625 [kJ/mol]
      Elst12,r                     -1.43420705 [mEh]      -0.89997851 [kcal/mol]      -3.76551008 [kJ/mol]

    Exchange                        2.86201888 [mEh]       1.79594396 [kcal/mol]       7.51422954 [kJ/mol]
      Exch10                        2.44259868 [mEh]       1.53275381 [kcal/mol]       6.41304196 [kJ/mol]
      Exch10(S^2)                   2.43877288 [mEh]       1.53035309 [kcal/mol]       6.40299732 [kJ/mol]
      Exch11(S^2)                  -0.06121172 [mEh]      -0.03841094 [kcal/mol]      -0.16071136 [kJ/mol]
      Exch12(S^2)                   0.48063192 [mEh]       0.30160108 [kcal/mol]       1.26189894 [kJ/mol]

    Induction                      -2.44294811 [mEh]      -1.53297308 [kcal/mol]      -6.41395937 [kJ/mol]
      Ind20,r                      -3.55524838 [mEh]      -2.23095204 [kcal/mol]      -9.33430333 [kJ/mol]
      Ind22                        -0.47002956 [mEh]      -0.29494800 [kcal/mol]      -1.23406243 [kJ/mol]
      Exch-Ind20,r                  1.53119470 [mEh]       0.96083918 [kcal/mol]       4.02015113 [kJ/mol]
      Exch-Ind22                    0.20243502 [mEh]       0.12702989 [kcal/mol]       0.53149306 [kJ/mol]
      delta HF,r (2)               -0.15129989 [mEh]      -0.09494211 [kcal/mol]      -0.39723780 [kJ/mol]

    Dispersion                     -1.74459344 [mEh]      -1.09474891 [kcal/mol]      -4.58042944 [kJ/mol]
      Disp20                       -1.89995384 [mEh]      -1.19223903 [kcal/mol]      -4.98832811 [kJ/mol]
      Disp21                        0.16348811 [mEh]       0.10259034 [kcal/mol]       0.42923798 [kJ/mol]
      Disp22 (SDQ)                 -0.03148836 [mEh]      -0.01975924 [kcal/mol]      -0.08267267 [kJ/mol]
      Disp22 (T)                   -0.29246486 [mEh]      -0.18352447 [kcal/mol]      -0.76786637 [kJ/mol]
      Est. Disp22 (T)              -0.35152153 [mEh]      -0.22058309 [kcal/mol]      -0.92291965 [kJ/mol]
      Exch-Disp20                   0.37488217 [mEh]       0.23524211 [kcal/mol]       0.98425300 [kJ/mol]

  Total HF                         15.39749525 [mEh]       9.66207414 [kcal/mol]      40.42611820 [kJ/mol]
  Total SAPT0                      13.87242358 [mEh]       8.70507722 [kcal/mol]      36.42204310 [kJ/mol]
  Total SAPT2                      12.59004219 [mEh]       7.90037075 [kcal/mol]      33.05515123 [kJ/mol]
  Total SAPT2+                     12.37052042 [mEh]       7.76261876 [kcal/mol]      32.47879689 [kJ/mol]

  Special recipe for scaled SAPT0 (see Manual):
    Electrostatics sSAPT0          15.13025013 [mEh]       9.49437530 [kcal/mol]      39.72446625 [kJ/mol]
    Exchange sSAPT0                 2.44259868 [mEh]       1.53275381 [kcal/mol]       6.41304196 [kJ/mol]
    Induction sSAPT0               -2.16813611 [mEh]      -1.36052595 [kcal/mol]      -5.69244058 [kJ/mol]
    Dispersion sSAPT0              -1.52330462 [mEh]      -0.95588808 [kcal/mol]      -3.99943572 [kJ/mol]
  Total sSAPT0                     13.88140808 [mEh]       8.71071508 [kcal/mol]      36.44563190 [kJ/mol]
  --------------------------------------------------------------------------------------------------------

*** Psi4 exiting successfully. Buy a developer a beer!
