                               Psi4 1.9 release

  ==> Input File <==

--------------------------------------------------------------------------
MEMORY 60 GB

molecule dimer {
0 1
O      0.000000     0.000000     0.000000
H     -0.588538     0.756918     0.000000
H     -0.588538    -0.756918     0.000000
--
-1 1
Cl     4.494000     0.000000     0.000000

units ang
no_reorient
no_com
symmetry c1
}

set {
basis        aug-cc-pVTZ
scf_type     df
}

energy("sapt2+")
--------------------------------------------------------------------------

  //              Dimer HF             //
    Molecular point group: c1
  Charge       = -1
  Multiplicity = 1
  Basis Set: AUG-CC-PVTZ
    Blend: AUG-CC-PVTZ
  Basis Set: (AUG-CC-PVTZ AUX)
    Blend: AUG-CC-PVTZ-JKFIT
  @DF-RHF Final Energy:  -535.62432411112229
    Total Energy =                       -535.6243241111222915
 Dipole X            :       -151.3769444          142.1469453           -9.2299991
 Dipole Y            :          0.0000000            0.0000000            0.0000000
 Dipole Z            :          0.0000000            0.0000000            0.0000000
 Magnitude           :                                                    9.2299991
  //            Monomer A HF           //
    Molecular point group: c1
  Multiplicity = 1
  Basis Set: AUG-CC-PVTZ
    Blend: AUG-CC-PVTZ
  Basis Set: (AUG-CC-PVTZ AUX)
    Blend: AUG-CC-PVTZ-JKFIT
  @DF-RHF Final Energy:   -76.06048174475531
    Total Energy =                        -76.0604817447553074
  //            Monomer B HF           //
    Molecular point group: c1

    Geometry (in Angstrom), charge = -1, multiplicity = 1:

       Center              X                  Y                   Z               Mass
    ------------   -----------------  -----------------  -----------------  -----------------
      Gh(O)           0.000000000000     0.000000000000     0.000000000000    15.994914619570
      Gh(H)          -0.588538000000     0.756918000000     0.000000000000     1.007825032230
      Gh(H)          -0.588538000000    -0.756918000000     0.000000000000     1.007825032230
         CL           4.494000000000     0.000000000000     0.000000000000    34.968852682000

  Charge       = -1
  Multiplicity = 1
  Basis Set: AUG-CC-PVTZ
    Blend: AUG-CC-PVTZ
  Basis Set: (AUG-CC-PVTZ AUX)
    Blend: AUG-CC-PVTZ-JKFIT

    Orbital Energies [Eh]
    ---------------------

    Doubly Occupied:

       1A   -104.505984     2A    -10.229747     3A     -7.695779
       4A     -7.695779     5A     -7.695777     6A     -0.733511
       7A     -0.150337     8A     -0.150336     9A     -0.150336

  @DF-RHF Final Energy:  -459.57348448695211

   => Energetics <=

    Nuclear Repulsion Energy =              0.0000000000000000
    One-Electron Energy =                -641.1318071760537123
    Two-Electron Energy =                 181.5583226891016295
    Total Energy =                       -459.5734844869521112
 Dipole X            :       -152.8635701          144.3712965           -8.4922736
 Dipole Y            :          0.0000000            0.0000000            0.0000000
 Dipole Z            :         -0.0000000            0.0000000           -0.0000000
 Magnitude           :                                                    8.4922736

    SAPT Results
  --------------------------------------------------------------------------------------------------------
    Electrostatics                  9.58181493 [mEh]       6.01267964 [kcal/mol]      25.15705162 [kJ/mol]
      Elst10,r                     10.29731309 [mEh]       6.46166152 [kcal/mol]      27.03559179 [kJ/mol]
      Elst12,r                     -0.71549816 [mEh]      -0.44898188 [kcal/mol]      -1.87854017 [kJ/mol]

    Exchange                        0.21965976 [mEh]       0.13783858 [kcal/mol]       0.57671661 [kJ/mol]
      Exch10                        0.17361315 [mEh]       0.10894389 [kcal/mol]       0.45582125 [kJ/mol]
      Exch10(S^2)                   0.17359073 [mEh]       0.10892983 [kcal/mol]       0.45576240 [kJ/mol]
      Exch11(S^2)                  -0.00852440 [mEh]      -0.00534914 [kcal/mol]      -0.02238082 [kJ/mol]
      Exch12(S^2)                   0.05457101 [mEh]       0.03424383 [kcal/mol]       0.14327618 [kJ/mol]

    Induction                      -0.92132674 [mEh]      -0.57814126 [kcal/mol]      -2.41894301 [kJ/mol]
      Ind20,r                      -0.95020282 [mEh]      -0.59626127 [kcal/mol]      -2.49475715 [kJ/mol]
      Ind22                        -0.10474828 [mEh]      -0.06573054 [kcal/mol]      -0.27501658 [kJ/mol]
      Exch-Ind20,r                  0.11091653 [mEh]       0.06960117 [kcal/mol]       0.29121131 [kJ/mol]
      Exch-Ind22                    0.01222720 [mEh]       0.00767268 [kcal/mol]       0.03210250 [kJ/mol]
      delta HF,r (2)                0.01048063 [mEh]       0.00657670 [kcal/mol]       0.02751690 [kJ/mol]

    Dispersion                     -0.38473878 [mEh]      -0.24142723 [kcal/mol]      -1.01013152 [kJ/mol]
      Disp20                       -0.36954515 [mEh]      -0.23189308 [kcal/mol]      -0.97024066 [kJ/mol]
      Disp21                        0.03370344 [mEh]       0.02114923 [kcal/mol]       0.08848837 [kJ/mol]
      Disp22 (SDQ)                 -0.00813649 [mEh]      -0.00510572 [kcal/mol]      -0.02136234 [kJ/mol]
      Disp22 (T)                   -0.06328314 [mEh]      -0.03971077 [kcal/mol]      -0.16614987 [kJ/mol]
      Est. Disp22 (T)              -0.07307223 [mEh]      -0.04585351 [kcal/mol]      -0.19185111 [kJ/mol]
      Exch-Disp20                   0.03231165 [mEh]       0.02027587 [kcal/mol]       0.08483422 [kJ/mol]

  Total HF                          9.64212059 [mEh]       6.05052201 [kcal/mol]      25.31538411 [kJ/mol]
  Total SAPT0                       9.30488708 [mEh]       5.83890480 [kcal/mol]      24.42997767 [kJ/mol]
  Total SAPT2                       8.54291444 [mEh]       5.36075975 [kcal/mol]      22.42941878 [kJ/mol]
  Total SAPT2+                      8.49540917 [mEh]       5.33094974 [kcal/mol]      22.30469369 [kJ/mol]

  Special recipe for scaled SAPT0 (see Manual):
    Electrostatics sSAPT0          10.29731309 [mEh]       6.46166152 [kcal/mol]      27.03559179 [kJ/mol]
    Exchange sSAPT0                 0.17361315 [mEh]       0.10894389 [kcal/mol]       0.45582125 [kJ/mol]
    Induction sSAPT0               -0.82876268 [mEh]      -0.52005643 [kcal/mol]      -2.17591611 [kJ/mol]
    Dispersion sSAPT0              -0.33722098 [mEh]      -0.21160936 [kcal/mol]      -0.88537357 [kJ/mol]
  Total sSAPT0                      9.30494257 [mEh]       5.83893962 [kcal/mol]      24.43012336 [kJ/mol]
  --------------------------------------------------------------------------------------------------------

*** Psi4 exiting successfully. Buy a developer a beer!
