                               Psi4 1.9 release

  ==> Input File <==

--------------------------------------------------------------------------
MEMORY 60 GB

molecule dimer {
0 1
O      0.000000     0.000000     0.000000
H     -0.588538     0.756918     0.000000
H     -0.588538    -0.756918     0.000000
--
-1 1
Br     6.720000     0.000000     0.000000

units ang
no_reorient
no_com
symmetry c1
}

set {
basis        aug-cc-pVTZ
scf_type     df
}

energy("sapt2+")
--------------------------------------------------------------------------

  //              Dimer HF             //
    Molecular point group: c1
  Charge       = -1
  Multiplicity = 1
  Basis Set: AUG-CC-PVTZ
    Blend: AUG-CC-PVTZ
  Basis Set: (AUG-CC-PVTZ AUX)
    Blend: AUG-CC-PVTZ-JKFIT
  @DF-RHF Final Energy: -2648.58957087958061
    Total Energy =                      -2648.5895708795810606
 Dipole X            :       -455.6971021          442.2392334          -13.4578687
 Dipole Y            :          0.0000000            0.0000000            0.0000000
 Dipole Z            :          0.0000000            0.0000000            0.0000000
 Magnitude           :                                                   13.4578687
  //            Monomer A HF           //
    Molecular point group: c1
  Multiplicity = 1
  Basis Set: AUG-CC-PVTZ
    Blend: AUG-CC-PVTZ
  Basis Set: (AUG-CC-PVTZ AUX)
    Blend: AUG-CC-PVTZ-JKFIT
  @DF-RHF Final Energy:   -76.06048077235188
    Total Energy =                        -76.0604807723518803
  //            Monomer B HF           //
    Molecular point group: c1

    Geometry (in Angstrom), charge = -1, multiplicity = 1:

       Center              X                  Y                   Z               Mass
    ------------   -----------------  -----------------  -----------------  -----------------
      Gh(O)           0.000000000000     0.000000000000     0.000000000000    15.994914619570
      Gh(H)          -0.588538000000     0.756918000000     0.000000000000     1.007825032230
      Gh(H)          -0.588538000000    -0.756918000000     0.000000000000     1.007825032230
         BR           6.720000000000     0.000000000000     0.000000000000    78.918337600000

  Charge       = -1
  Multiplicity = 1
  Basis Set: AUG-CC-PVTZ
    Blend: AUG-CC-PVTZ
  Basis Set: (AUG-CC-PVTZ AUX)
    Blend: AUG-CC-PVTZ-JKFIT

    Orbital Energies [Eh]
    ---------------------

    Doubly Occupied:

       1A   -489.720302     2A    -64.860409     3A    -58.214874
       4A    -58.214874     5A    -58.214874     6A     -9.532840
       7A     -7.140179     8A     -7.140179     9A     -7.140178
      10A     -2.881844    11A     -2.881844    12A     -2.881844
      13A     -2.881844    14A     -2.881843    15A     -0.686001
      16A     -0.139337    17A     -0.139337    18A     -0.139337

  @DF-RHF Final Energy: -2572.53366619176722

   => Energetics <=

    Nuclear Repulsion Energy =              0.0000000000000000
    One-Electron Energy =               -3593.6834497010709129
    Two-Electron Energy =                1021.1497835093040294
    Total Energy =                      -2572.5336661917667698
 Dipole X            :       -457.1626441          444.4635847          -12.6990594
 Dipole Y            :          0.0000000            0.0000000            0.0000000
 Dipole Z            :          0.0000000            0.0000000            0.0000000
 Magnitude           :                                                   12.6990594

    SAPT Results
  --------------------------------------------------------------------------------------------------------
    Electrostatics                  4.42980883 [mEh]       2.77974700 [kcal/mol]      11.63046147 [kJ/mol]
      Elst10,r                      4.73473119 [mEh]       2.97108868 [kcal/mol]      12.43103504 [kJ/mol]
      Elst12,r                     -0.30492237 [mEh]      -0.19134167 [kcal/mol]      -0.80057357 [kJ/mol]

    Exchange                        0.00176671 [mEh]       0.00110863 [kcal/mol]       0.00463850 [kJ/mol]
      Exch10                        0.00130552 [mEh]       0.00081922 [kcal/mol]       0.00342764 [kJ/mol]
      Exch10(S^2)                   0.00130552 [mEh]       0.00081922 [kcal/mol]       0.00342763 [kJ/mol]
      Exch11(S^2)                  -0.00009158 [mEh]      -0.00005747 [kcal/mol]      -0.00024045 [kJ/mol]
      Exch12(S^2)                   0.00055278 [mEh]       0.00034687 [kcal/mol]       0.00145132 [kJ/mol]

    Induction                      -0.17574642 [mEh]      -0.11028254 [kcal/mol]      -0.46142216 [kJ/mol]
      Ind20,r                      -0.16591407 [mEh]      -0.10411265 [kcal/mol]      -0.43560734 [kJ/mol]
      Ind22                        -0.01587691 [mEh]      -0.00996291 [kcal/mol]      -0.04168483 [kJ/mol]
      Exch-Ind20,r                  0.00086386 [mEh]       0.00054208 [kcal/mol]       0.00226805 [kJ/mol]
      Exch-Ind22                    0.00008267 [mEh]       0.00005187 [kcal/mol]       0.00021704 [kJ/mol]
      delta HF,r (2)                0.00509805 [mEh]       0.00319907 [kcal/mol]       0.01338492 [kJ/mol]

    Dispersion                     -0.03630006 [mEh]      -0.02277863 [kcal/mol]      -0.09530579 [kJ/mol]
      Disp20                       -0.03436586 [mEh]      -0.02156490 [kcal/mol]      -0.09022755 [kJ/mol]
      Disp21                        0.00496797 [mEh]       0.00311745 [kcal/mol]       0.01304341 [kJ/mol]
      Disp22 (SDQ)                 -0.00046364 [mEh]      -0.00029094 [kcal/mol]      -0.00121728 [kJ/mol]
      Disp22 (T)                   -0.00627818 [mEh]      -0.00393962 [kcal/mol]      -0.01648337 [kJ/mol]
      Est. Disp22 (T)              -0.00672462 [mEh]      -0.00421976 [kcal/mol]      -0.01765549 [kJ/mol]
      Exch-Disp20                   0.00028608 [mEh]       0.00017952 [kcal/mol]       0.00075112 [kJ/mol]

  Total HF                          4.57608454 [mEh]       2.87153640 [kcal/mol]      12.01450830 [kJ/mol]
  Total SAPT0                       4.54200476 [mEh]       2.85015102 [kcal/mol]      11.92503187 [kJ/mol]
  Total SAPT2                       4.22174934 [mEh]       2.64918771 [kcal/mol]      11.08420137 [kJ/mol]
  Total SAPT2+                      4.21952906 [mEh]       2.64779446 [kcal/mol]      11.07837201 [kJ/mol]

  Special recipe for scaled SAPT0 (see Manual):
    Electrostatics sSAPT0           4.73473119 [mEh]       2.97108868 [kcal/mol]      12.43103504 [kJ/mol]
    Exchange sSAPT0                 0.00130552 [mEh]       0.00081922 [kcal/mol]       0.00342764 [kJ/mol]
    Induction sSAPT0               -0.15995217 [mEh]      -0.10037150 [kcal/mol]      -0.41995437 [kJ/mol]
    Dispersion sSAPT0              -0.03407977 [mEh]      -0.02138538 [kcal/mol]      -0.08947643 [kJ/mol]
  Total sSAPT0                      4.54200476 [mEh]       2.85015102 [kcal/mol]      11.92503187 [kJ/mol]
  --------------------------------------------------------------------------------------------------------

*** Psi4 exiting successfully. Buy a developer a beer!
