                               Psi4 1.9 release

  ==> Input File <==

--------------------------------------------------------------------------
MEMORY 60 GB

molecule dimer {
0 1
O      0.000000     0.000000     0.000000
H     -0.588538     0.756918     0.000000
H     -0.588538    -0.756918     0.000000
--
-1 1
Br     5.040000     0.000000     0.000000

units ang
no_reorient
no_com
symmetry c1
}

set {
basis        aug-cc-pVTZ
scf_type     df
}

energy("sapt2+")
--------------------------------------------------------------------------

  //              Dimer HF             //
    Molecular point group: c1
  Charge       = -1
  Multiplicity = 1
  Basis Set: AUG-CC-PVTZ
    Blend: AUG-CC-PVTZ
  Basis Set: (AUG-CC-PVTZ AUX)
    Blend: AUG-CC-PVTZ-JKFIT
  @DF-RHF Final Energy: -2648.58633589685587
    Total Energy =                      -2648.5863358968558714
 Dipole X            :       -341.4062016          331.1233373          -10.2828643
 Dipole Y            :         -0.0000000            0.0000000           -0.0000000
 Dipole Z            :          0.0000000            0.0000000            0.0000000
 Magnitude           :                                                   10.2828643
  //            Monomer A HF           //
    Molecular point group: c1
  Multiplicity = 1
  Basis Set: AUG-CC-PVTZ
    Blend: AUG-CC-PVTZ
  Basis Set: (AUG-CC-PVTZ AUX)
    Blend: AUG-CC-PVTZ-JKFIT
  @DF-RHF Final Energy:   -76.06048126078772
    Total Energy =                        -76.0604812607877250
  //            Monomer B HF           //
    Molecular point group: c1

    Geometry (in Angstrom), charge = -1, multiplicity = 1:

       Center              X                  Y                   Z               Mass
    ------------   -----------------  -----------------  -----------------  -----------------
      Gh(O)           0.000000000000     0.000000000000     0.000000000000    15.994914619570
      Gh(H)          -0.588538000000     0.756918000000     0.000000000000     1.007825032230
      Gh(H)          -0.588538000000    -0.756918000000     0.000000000000     1.007825032230
         BR           5.040000000000     0.000000000000     0.000000000000    78.918337600000

  Charge       = -1
  Multiplicity = 1
  Basis Set: AUG-CC-PVTZ
    Blend: AUG-CC-PVTZ
  Basis Set: (AUG-CC-PVTZ AUX)
    Blend: AUG-CC-PVTZ-JKFIT

    Orbital Energies [Eh]
    ---------------------

    Doubly Occupied:

       1A   -489.720335     2A    -64.860434     3A    -58.214901
       4A    -58.214901     5A    -58.214900     6A     -9.532848
       7A     -7.140188     8A     -7.140188     9A     -7.140187
      10A     -2.881854    11A     -2.881854    12A     -2.881853
      13A     -2.881853    14A     -2.881849    15A     -0.686001
      16A     -0.139337    17A     -0.139337    18A     -0.139337

  @DF-RHF Final Energy: -2572.53366754213448

   => Energetics <=

    Nuclear Repulsion Energy =              0.0000000000000000
    One-Electron Energy =               -3593.6830135022405557
    Two-Electron Energy =                1021.1493459601060749
    Total Energy =                      -2572.5336675421344808
 Dipole X            :       -342.8717875          333.3476885           -9.5240990
 Dipole Y            :         -0.0000000            0.0000000           -0.0000000
 Dipole Z            :         -0.0000000            0.0000000           -0.0000000
 Magnitude           :                                                    9.5240990

    SAPT Results
  --------------------------------------------------------------------------------------------------------
    Electrostatics                  7.71817613 [mEh]       4.84322864 [kcal/mol]      20.26406863 [kJ/mol]
      Elst10,r                      8.27070867 [mEh]       5.18994805 [kcal/mol]      21.71474262 [kJ/mol]
      Elst12,r                     -0.55253254 [mEh]      -0.34671940 [kcal/mol]      -1.45067399 [kJ/mol]

    Exchange                        0.09309802 [mEh]       0.05841989 [kcal/mol]       0.24442881 [kJ/mol]
      Exch10                        0.07522749 [mEh]       0.04720596 [kcal/mol]       0.19750974 [kJ/mol]
      Exch10(S^2)                   0.07522278 [mEh]       0.04720301 [kcal/mol]       0.19749738 [kJ/mol]
      Exch11(S^2)                  -0.00380906 [mEh]      -0.00239022 [kcal/mol]      -0.01000068 [kJ/mol]
      Exch12(S^2)                   0.02167959 [mEh]       0.01360415 [kcal/mol]       0.05691976 [kJ/mol]

    Induction                      -0.58702285 [mEh]      -0.36836240 [kcal/mol]      -1.54122828 [kJ/mol]
      Ind20,r                      -0.59758755 [mEh]      -0.37499185 [kcal/mol]      -1.56896589 [kJ/mol]
      Ind22                        -0.05907687 [mEh]      -0.03707129 [kcal/mol]      -0.15510630 [kJ/mol]
      Exch-Ind20,r                  0.05142793 [mEh]       0.03227151 [kcal/mol]       0.13502401 [kJ/mol]
      Exch-Ind22                    0.00508411 [mEh]       0.00319033 [kcal/mol]       0.01334833 [kJ/mol]
      delta HF,r (2)                0.01312953 [mEh]       0.00823890 [kcal/mol]       0.03447156 [kJ/mol]

    Dispersion                     -0.24420082 [mEh]      -0.15323833 [kcal/mol]      -0.64114918 [kJ/mol]
      Disp20                       -0.23445880 [mEh]      -0.14712512 [kcal/mol]      -0.61557148 [kJ/mol]
      Disp21                        0.02611374 [mEh]       0.01638662 [kcal/mol]       0.06856162 [kJ/mol]
      Disp22 (SDQ)                 -0.00468135 [mEh]      -0.00293759 [kcal/mol]      -0.01229088 [kJ/mol]
      Disp22 (T)                   -0.04070035 [mEh]      -0.02553985 [kcal/mol]      -0.10685875 [kJ/mol]
      Est. Disp22 (T)              -0.04587931 [mEh]      -0.02878970 [kcal/mol]      -0.12045612 [kJ/mol]
      Exch-Disp20                   0.01470489 [mEh]       0.00922746 [kcal/mol]       0.03860769 [kJ/mol]

  Total HF                          7.81290607 [mEh]       4.90267257 [kcal/mol]      20.51278205 [kJ/mol]
  Total SAPT0                       7.59315216 [mEh]       4.76477492 [kcal/mol]      19.93581825 [kJ/mol]
  Total SAPT2                       7.00449739 [mEh]       4.39538847 [kcal/mol]      18.39030537 [kJ/mol]
  Total SAPT2+                      6.98005047 [mEh]       4.38004780 [kcal/mol]      18.32611999 [kJ/mol]

  Special recipe for scaled SAPT0 (see Manual):
    Electrostatics sSAPT0           8.27070867 [mEh]       5.18994805 [kcal/mol]      21.71474262 [kJ/mol]
    Exchange sSAPT0                 0.07522749 [mEh]       0.04720596 [kcal/mol]       0.19750974 [kJ/mol]
    Induction sSAPT0               -0.53302044 [mEh]      -0.33447537 [kcal/mol]      -1.39944496 [kJ/mol]
    Dispersion sSAPT0              -0.21975114 [mEh]      -0.13789592 [kcal/mol]      -0.57695655 [kJ/mol]
  Total sSAPT0                      7.59316458 [mEh]       4.76478271 [kcal/mol]      19.93585085 [kJ/mol]
  --------------------------------------------------------------------------------------------------------

*** Psi4 exiting successfully. Buy a developer a beer!
