                               Psi4 1.9 release

  ==> Input File <==

--------------------------------------------------------------------------
MEMORY 60 GB

molecule dimer {
0 1
O      0.000000     0.000000     0.000000
H     -0.588538     0.756918     0.000000
H     -0.588538    -0.756918     0.000000
--
-1 1
Br     3.360000     0.000000     0.000000

units ang
no_reorient
no_com
symmetry c1
}

set {
basis        aug-cc-pVTZ
scf_type     df
}

energy("sapt2+")
--------------------------------------------------------------------------

  //              Dimer HF             //
    Molecular point group: c1
  Charge       = -1
  Multiplicity = 1
  Basis Set: AUG-CC-PVTZ
    Blend: AUG-CC-PVTZ
  Basis Set: (AUG-CC-PVTZ AUX)
    Blend: AUG-CC-PVTZ-JKFIT
  @DF-RHF Final Energy: -2648.57618019864367
    Total Energy =                      -2648.5761801986441242
 Dipole X            :       -227.1618133          220.0074411           -7.1543722
 Dipole Y            :          0.0000000            0.0000000            0.0000000
 Dipole Z            :         -0.0000000            0.0000000           -0.0000000
 Magnitude           :                                                    7.1543722
  //            Monomer A HF           //
    Molecular point group: c1
  Multiplicity = 1
  Basis Set: AUG-CC-PVTZ
    Blend: AUG-CC-PVTZ
  Basis Set: (AUG-CC-PVTZ AUX)
    Blend: AUG-CC-PVTZ-JKFIT
  @DF-RHF Final Energy:   -76.06048943018243
    Total Energy =                        -76.0604894301824430
  //            Monomer B HF           //
    Molecular point group: c1

    Geometry (in Angstrom), charge = -1, multiplicity = 1:

       Center              X                  Y                   Z               Mass
    ------------   -----------------  -----------------  -----------------  -----------------
      Gh(O)           0.000000000000     0.000000000000     0.000000000000    15.994914619570
      Gh(H)          -0.588538000000     0.756918000000     0.000000000000     1.007825032230
      Gh(H)          -0.588538000000    -0.756918000000     0.000000000000     1.007825032230
         BR           3.360000000000     0.000000000000     0.000000000000    78.918337600000

  Charge       = -1
  Multiplicity = 1
  Basis Set: AUG-CC-PVTZ
    Blend: AUG-CC-PVTZ
  Basis Set: (AUG-CC-PVTZ AUX)
    Blend: AUG-CC-PVTZ-JKFIT

    Orbital Energies [Eh]
    ---------------------

    Doubly Occupied:

       1A   -489.720474     2A    -64.860534     3A    -58.215006
       4A    -58.215006     5A    -58.215005     6A     -9.532879
       7A     -7.140221     8A     -7.140220     9A     -7.140213
      10A     -2.881888    11A     -2.881888    12A     -2.881888
      13A     -2.881887    14A     -2.881879    15A     -0.685999
      16A     -0.139337    17A     -0.139336    18A     -0.139335

  @DF-RHF Final Energy: -2572.53367253286615

   => Energetics <=

    Nuclear Repulsion Energy =              0.0000000000000000
    One-Electron Energy =               -3593.6813539291538291
    Two-Electron Energy =                1021.1476813962876804
    Total Energy =                      -2572.5336725328661487
 Dipole X            :       -228.5812112          222.2317924           -6.3494189
 Dipole Y            :          0.0000000            0.0000000            0.0000000
 Dipole Z            :          0.0000000            0.0000000            0.0000000
 Magnitude           :                                                    6.3494189

    SAPT Results
  --------------------------------------------------------------------------------------------------------
    Electrostatics                 12.79016495 [mEh]       8.02594968 [kcal/mol]      33.58057345 [kJ/mol]
      Elst10,r                     14.52853016 [mEh]       9.11679032 [kcal/mol]      38.14465069 [kJ/mol]
      Elst12,r                     -1.73836521 [mEh]      -1.09084064 [kcal/mol]      -4.56407724 [kJ/mol]

    Exchange                        7.01236999 [mEh]       4.40032860 [kcal/mol]      18.41097487 [kJ/mol]
      Exch10                        6.22385268 [mEh]       3.90552652 [kcal/mol]      16.34072297 [kJ/mol]
      Exch10(S^2)                   6.19903302 [mEh]       3.88995195 [kcal/mol]      16.27555895 [kJ/mol]
      Exch11(S^2)                  -0.07764278 [mEh]      -0.04872158 [kcal/mol]      -0.20385110 [kJ/mol]
      Exch12(S^2)                   0.86616009 [mEh]       0.54352366 [kcal/mol]       2.27410300 [kJ/mol]

    Induction                      -3.05276047 [mEh]      -1.91563611 [kcal/mol]      -8.01502150 [kJ/mol]
      Ind20,r                      -6.62370959 [mEh]      -4.15644052 [kcal/mol]     -17.39054714 [kJ/mol]
      Ind22                        -0.82390904 [mEh]      -0.51701073 [kcal/mol]      -2.16317289 [kJ/mol]
      Exch-Ind20,r                  4.35546546 [mEh]       2.73309584 [kcal/mol]      11.43527300 [kJ/mol]
      Exch-Ind22                    0.54176701 [mEh]       0.33996393 [kcal/mol]       1.42240910 [kJ/mol]
      delta HF,r (2)               -0.50237431 [mEh]      -0.31524464 [kcal/mol]      -1.31898358 [kJ/mol]

    Dispersion                     -3.00781885 [mEh]      -1.88743482 [kcal/mol]      -7.89702729 [kJ/mol]
      Disp20                       -3.58625188 [mEh]      -2.25040703 [kcal/mol]      -9.41570301 [kJ/mol]
      Disp21                        0.36637708 [mEh]       0.22990509 [kcal/mol]       0.96192290 [kJ/mol]
      Disp22 (SDQ)                 -0.04563346 [mEh]      -0.02863543 [kcal/mol]      -0.11981062 [kJ/mol]
      Disp22 (T)                   -0.52370006 [mEh]      -0.32862675 [kcal/mol]      -1.37497432 [kJ/mol]
      Est. Disp22 (T)              -0.62276032 [mEh]      -0.39078800 [kcal/mol]      -1.63505700 [kJ/mol]
      Exch-Disp20                   0.88044973 [mEh]       0.55249055 [kcal/mol]       2.31162044 [kJ/mol]

  Total HF                         17.98176440 [mEh]      11.28372752 [kcal/mol]      47.21111594 [kJ/mol]
  Total SAPT0                      15.27596225 [mEh]       9.58581104 [kcal/mol]      40.10703337 [kJ/mol]
  Total SAPT2                      14.04397232 [mEh]       8.81272568 [kcal/mol]      36.87244425 [kJ/mol]
  Total SAPT2+                     13.74195562 [mEh]       8.62320734 [kcal/mol]      36.07949952 [kJ/mol]

  Special recipe for scaled SAPT0 (see Manual):
    Electrostatics sSAPT0          14.52853016 [mEh]       9.11679032 [kcal/mol]      38.14465069 [kJ/mol]
    Exchange sSAPT0                 6.22385268 [mEh]       3.90552652 [kcal/mol]      16.34072297 [kJ/mol]
    Induction sSAPT0               -2.71809351 [mEh]      -1.70562943 [kcal/mol]      -7.13635354 [kJ/mol]
    Dispersion sSAPT0              -2.69518433 [mEh]      -1.69125370 [kcal/mol]      -7.07620548 [kJ/mol]
  Total sSAPT0                     15.33910501 [mEh]       9.62543371 [kcal/mol]      40.27281464 [kJ/mol]
  --------------------------------------------------------------------------------------------------------

*** Psi4 exiting successfully. Buy a developer a beer!
