                               Psi4 1.9 release

  ==> Input File <==

--------------------------------------------------------------------------
MEMORY 60 GB

molecule dimer {
0 1
O      0.000000     0.000000     0.000000
H     -0.588538     0.756918     0.000000
H     -0.588538    -0.756918     0.000000
--
-1 1
Br     3.696000     0.000000     0.000000

units ang
no_reorient
no_com
symmetry c1
}

set {
basis        aug-cc-pVTZ
scf_type     df
}

energy("sapt2+")
--------------------------------------------------------------------------

  //              Dimer HF             //
    Molecular point group: c1
  Charge       = -1
  Multiplicity = 1
  Basis Set: AUG-CC-PVTZ
    Blend: AUG-CC-PVTZ
  Basis Set: (AUG-CC-PVTZ AUX)
    Blend: AUG-CC-PVTZ-JKFIT
  @DF-RHF Final Energy: -2648.57992191299400
    Total Energy =                      -2648.5799219129939956
 Dipole X            :       -249.9990815          242.2306203           -7.7684612
 Dipole Y            :         -0.0000000            0.0000000           -0.0000000
 Dipole Z            :         -0.0000000            0.0000000           -0.0000000
 Magnitude           :                                                    7.7684612
  //            Monomer A HF           //
    Molecular point group: c1
  Multiplicity = 1
  Basis Set: AUG-CC-PVTZ
    Blend: AUG-CC-PVTZ
  Basis Set: (AUG-CC-PVTZ AUX)
    Blend: AUG-CC-PVTZ-JKFIT
  @DF-RHF Final Energy:   -76.06048573647288
    Total Energy =                        -76.0604857364728844
  //            Monomer B HF           //
    Molecular point group: c1

    Geometry (in Angstrom), charge = -1, multiplicity = 1:

       Center              X                  Y                   Z               Mass
    ------------   -----------------  -----------------  -----------------  -----------------
      Gh(O)           0.000000000000     0.000000000000     0.000000000000    15.994914619570
      Gh(H)          -0.588538000000     0.756918000000     0.000000000000     1.007825032230
      Gh(H)          -0.588538000000    -0.756918000000     0.000000000000     1.007825032230
         BR           3.696000000000     0.000000000000     0.000000000000    78.918337600000

  Charge       = -1
  Multiplicity = 1
  Basis Set: AUG-CC-PVTZ
    Blend: AUG-CC-PVTZ
  Basis Set: (AUG-CC-PVTZ AUX)
    Blend: AUG-CC-PVTZ-JKFIT

    Orbital Energies [Eh]
    ---------------------

    Doubly Occupied:

       1A   -489.720428     2A    -64.860502     3A    -58.214972
       4A    -58.214972     5A    -58.214971     6A     -9.532869
       7A     -7.140209     8A     -7.140209     9A     -7.140204
      10A     -2.881876    11A     -2.881876    12A     -2.881876
      13A     -2.881876    14A     -2.881869    15A     -0.685999
      16A     -0.139338    17A     -0.139335    18A     -0.139334

  @DF-RHF Final Energy: -2572.53367105215784

   => Energetics <=

    Nuclear Repulsion Energy =              0.0000000000000000
    One-Electron Energy =               -3593.6819111685404096
    Two-Electron Energy =                1021.1482401163823397
    Total Energy =                      -2572.5336710521578425
 Dipole X            :       -251.4391776          244.4549716           -6.9842061
 Dipole Y            :          0.0000000            0.0000000            0.0000000
 Dipole Z            :          0.0000000            0.0000000            0.0000000
 Magnitude           :                                                    6.9842061

    SAPT Results
  --------------------------------------------------------------------------------------------------------
    Electrostatics                 12.41378269 [mEh]       7.78976624 [kcal/mol]      32.59238196 [kJ/mol]
      Elst10,r                     13.67633787 [mEh]       8.58203158 [kcal/mol]      35.90722012 [kJ/mol]
      Elst12,r                     -1.26255518 [mEh]      -0.79226534 [kcal/mol]      -3.31483816 [kJ/mol]

    Exchange                        2.83199353 [mEh]       1.77710277 [kcal/mol]       7.43539798 [kJ/mol]
      Exch10                        2.46304688 [mEh]       1.54558525 [kcal/mol]       6.46672869 [kJ/mol]
      Exch10(S^2)                   2.45892022 [mEh]       1.54299573 [kcal/mol]       6.45589415 [kJ/mol]
      Exch11(S^2)                  -0.05037270 [mEh]      -0.03160935 [kcal/mol]      -0.13225351 [kJ/mol]
      Exch12(S^2)                   0.41931935 [mEh]       0.26312686 [kcal/mol]       1.10092279 [kJ/mol]

    Induction                      -2.11141693 [mEh]      -1.32493413 [kcal/mol]      -5.54352439 [kJ/mol]
      Ind20,r                      -3.43861922 [mEh]      -2.15776614 [kcal/mol]      -9.02809353 [kJ/mol]
      Ind22                        -0.41016841 [mEh]      -0.25738456 [kcal/mol]      -1.07689701 [kJ/mol]
      Exch-Ind20,r                  1.70402145 [mEh]       1.06928961 [kcal/mol]       4.47390771 [kJ/mol]
      Exch-Ind22                    0.20326059 [mEh]       0.12754795 [kcal/mol]       0.53366060 [kJ/mol]
      delta HF,r (2)               -0.16991134 [mEh]      -0.10662098 [kcal/mol]      -0.44610216 [kJ/mol]

    Dispersion                     -1.75566010 [mEh]      -1.10169335 [kcal/mol]      -4.60948496 [kJ/mol]
      Disp20                       -1.95014217 [mEh]      -1.22373269 [kcal/mol]      -5.12009757 [kJ/mol]
      Disp21                        0.18897574 [mEh]       0.11858407 [kcal/mol]       0.49615574 [kJ/mol]
      Disp22 (SDQ)                 -0.03014092 [mEh]      -0.01891371 [kcal/mol]      -0.07913497 [kJ/mol]
      Disp22 (T)                   -0.29113841 [mEh]      -0.18269211 [kcal/mol]      -0.76438378 [kJ/mol]
      Est. Disp22 (T)              -0.35304356 [mEh]      -0.22153818 [kcal/mol]      -0.92691573 [kJ/mol]
      Exch-Disp20                   0.38869081 [mEh]       0.24390716 [kcal/mol]       1.02050757 [kJ/mol]

  Total HF                         14.23487564 [mEh]       8.93251932 [kcal/mol]      37.37366084 [kJ/mol]
  Total SAPT0                      12.67342427 [mEh]       7.95269380 [kcal/mol]      33.27407084 [kJ/mol]
  Total SAPT2                      11.57290792 [mEh]       7.26210936 [kcal/mol]      30.38466556 [kJ/mol]
  Total SAPT2+                     11.37869918 [mEh]       7.14024154 [kcal/mol]      29.87477059 [kJ/mol]

  Special recipe for scaled SAPT0 (see Manual):
    Electrostatics sSAPT0          13.67633787 [mEh]       8.58203158 [kcal/mol]      35.90722012 [kJ/mol]
    Exchange sSAPT0                 2.46304688 [mEh]       1.54558525 [kcal/mol]       6.46672869 [kJ/mol]
    Induction sSAPT0               -1.89591543 [mEh]      -1.18970490 [kcal/mol]      -4.97772528 [kJ/mol]
    Dispersion sSAPT0              -1.55949113 [mEh]      -0.97859546 [kcal/mol]      -4.09444339 [kJ/mol]
  Total sSAPT0                     12.68397819 [mEh]       7.95931648 [kcal/mol]      33.30178014 [kJ/mol]
  --------------------------------------------------------------------------------------------------------

*** Psi4 exiting successfully. Buy a developer a beer!
