                               Psi4 1.9 release

  ==> Input File <==

--------------------------------------------------------------------------
MEMORY 60 GB

molecule dimer {
0 1
O      0.000000     0.000000     0.000000
H     -0.588538     0.756918     0.000000
H     -0.588538    -0.756918     0.000000
--
-1 1
Br     4.032000     0.000000     0.000000

units ang
no_reorient
no_com
symmetry c1
}

set {
basis        aug-cc-pVTZ
scf_type     df
}

energy("sapt2+")
--------------------------------------------------------------------------

  //              Dimer HF             //
    Molecular point group: c1
  Charge       = -1
  Multiplicity = 1
  Basis Set: AUG-CC-PVTZ
    Blend: AUG-CC-PVTZ
  Basis Set: (AUG-CC-PVTZ AUX)
    Blend: AUG-CC-PVTZ-JKFIT
  @DF-RHF Final Energy: -2648.58228783042478
    Total Energy =                      -2648.5822878304252299
 Dipole X            :       -272.8449558          264.4537996           -8.3911563
 Dipole Y            :         -0.0000000            0.0000000           -0.0000000
 Dipole Z            :          0.0000000            0.0000000            0.0000000
 Magnitude           :                                                    8.3911563
  //            Monomer A HF           //
    Molecular point group: c1
  Multiplicity = 1
  Basis Set: AUG-CC-PVTZ
    Blend: AUG-CC-PVTZ
  Basis Set: (AUG-CC-PVTZ AUX)
    Blend: AUG-CC-PVTZ-JKFIT
  @DF-RHF Final Energy:   -76.06048450282756
    Total Energy =                        -76.0604845028275633
  //            Monomer B HF           //
    Molecular point group: c1

    Geometry (in Angstrom), charge = -1, multiplicity = 1:

       Center              X                  Y                   Z               Mass
    ------------   -----------------  -----------------  -----------------  -----------------
      Gh(O)           0.000000000000     0.000000000000     0.000000000000    15.994914619570
      Gh(H)          -0.588538000000     0.756918000000     0.000000000000     1.007825032230
      Gh(H)          -0.588538000000    -0.756918000000     0.000000000000     1.007825032230
         BR           4.032000000000     0.000000000000     0.000000000000    78.918337600000

  Charge       = -1
  Multiplicity = 1
  Basis Set: AUG-CC-PVTZ
    Blend: AUG-CC-PVTZ
  Basis Set: (AUG-CC-PVTZ AUX)
    Blend: AUG-CC-PVTZ-JKFIT

    Orbital Energies [Eh]
    ---------------------

    Doubly Occupied:

       1A   -489.720394     2A    -64.860478     3A    -58.214947
       4A    -58.214947     5A    -58.214946     6A     -9.532861
       7A     -7.140202     8A     -7.140201     9A     -7.140198
      10A     -2.881868    11A     -2.881868    12A     -2.881868
      13A     -2.881868    14A     -2.881861    15A     -0.685999
      16A     -0.139338    17A     -0.139335    18A     -0.139335

  @DF-RHF Final Energy: -2572.53367008016176

   => Energetics <=

    Nuclear Repulsion Energy =              0.0000000000000000
    One-Electron Energy =               -3593.6823099092562188
    Two-Electron Energy =                1021.1486398290944635
    Total Energy =                      -2572.5336700801617553
 Dipole X            :       -274.2972373          266.6781508           -7.6190865
 Dipole Y            :         -0.0000000            0.0000000           -0.0000000
 Dipole Z            :          0.0000000            0.0000000            0.0000000
 Magnitude           :                                                    7.6190865

    SAPT Results
  --------------------------------------------------------------------------------------------------------
    Electrostatics                 11.24133535 [mEh]       7.05404443 [kcal/mol]      29.51412190 [kJ/mol]
      Elst10,r                     12.21089938 [mEh]       7.66245504 [kcal/mol]      32.05971189 [kJ/mol]
      Elst12,r                     -0.96956402 [mEh]      -0.60841061 [kcal/mol]      -2.54558999 [kJ/mol]

    Exchange                        1.16999707 [mEh]       0.73418424 [kcal/mol]       3.07182687 [kJ/mol]
      Exch10                        0.99841387 [mEh]       0.62651416 [kcal/mol]       2.62133525 [kJ/mol]
      Exch10(S^2)                   0.99769861 [mEh]       0.62606533 [kcal/mol]       2.61945733 [kJ/mol]
      Exch11(S^2)                  -0.02885726 [mEh]      -0.01810820 [kcal/mol]      -0.07576472 [kJ/mol]
      Exch12(S^2)                   0.20044045 [mEh]       0.12577828 [kcal/mol]       0.52625634 [kJ/mol]

    Induction                      -1.48949897 [mEh]      -0.93467471 [kcal/mol]      -3.91067900 [kJ/mol]
      Ind20,r                      -1.98905976 [mEh]      -1.24815384 [kcal/mol]      -5.22227567 [kJ/mol]
      Ind22                        -0.22487840 [mEh]      -0.14111332 [kcal/mol]      -0.59041815 [kJ/mol]
      Exch-Ind20,r                  0.68938384 [mEh]       0.43259489 [kcal/mol]       1.80997702 [kJ/mol]
      Exch-Ind22                    0.07794011 [mEh]       0.04890816 [kcal/mol]       0.20463173 [kJ/mol]
      delta HF,r (2)               -0.04288476 [mEh]      -0.02691059 [kcal/mol]      -0.11259392 [kJ/mol]

    Dispersion                     -1.03632793 [mEh]      -0.65030559 [kcal/mol]      -2.72087860 [kJ/mol]
      Disp20                       -1.09000800 [mEh]      -0.68399035 [kcal/mol]      -2.86181562 [kJ/mol]
      Disp21                        0.10535985 [mEh]       0.06611430 [kcal/mol]       0.27662225 [kJ/mol]
      Disp22 (SDQ)                 -0.01937890 [mEh]      -0.01216044 [kcal/mol]      -0.05087929 [kJ/mol]
      Disp22 (T)                   -0.16803905 [mEh]      -0.10544609 [kcal/mol]      -0.44118646 [kJ/mol]
      Est. Disp22 (T)              -0.20317533 [mEh]      -0.12749444 [kcal/mol]      -0.53343675 [kJ/mol]
      Exch-Disp20                   0.17087445 [mEh]       0.10722533 [kcal/mol]       0.44863080 [kJ/mol]

  Total HF                         11.86675256 [mEh]       7.44649966 [kcal/mol]      31.15615457 [kJ/mol]
  Total SAPT0                      10.94761901 [mEh]       6.86973464 [kcal/mol]      28.74296975 [kJ/mol]
  Total SAPT2                      10.00269990 [mEh]       6.27678895 [kcal/mol]      26.26208496 [kJ/mol]
  Total SAPT2+                      9.88550552 [mEh]       6.20324837 [kcal/mol]      25.95439117 [kJ/mol]

  Special recipe for scaled SAPT0 (see Manual):
    Electrostatics sSAPT0          12.21089938 [mEh]       7.66245504 [kcal/mol]      32.05971189 [kJ/mol]
    Exchange sSAPT0                 0.99841387 [mEh]       0.62651416 [kcal/mol]       2.62133525 [kJ/mol]
    Induction sSAPT0               -1.34107693 [mEh]      -0.84153848 [kcal/mol]      -3.52099700 [kJ/mol]
    Dispersion sSAPT0              -0.91876579 [mEh]      -0.57653423 [kcal/mol]      -2.41221924 [kJ/mol]
  Total sSAPT0                     10.94947052 [mEh]       6.87089649 [kcal/mol]      28.74783090 [kJ/mol]
  --------------------------------------------------------------------------------------------------------

*** Psi4 exiting successfully. Buy a developer a beer!
