                               Psi4 1.9 release

  ==> Input File <==

--------------------------------------------------------------------------
MEMORY 60 GB

molecule dimer {
0 1
O      0.000000     0.000000     0.000000
H     -0.588538     0.756918     0.000000
H     -0.588538    -0.756918     0.000000
--
-1 1
Br     4.704000     0.000000     0.000000

units ang
no_reorient
no_com
symmetry c1
}

set {
basis        aug-cc-pVTZ
scf_type     df
}

energy("sapt2+")
--------------------------------------------------------------------------

  //              Dimer HF             //
    Molecular point group: c1
  Charge       = -1
  Multiplicity = 1
  Basis Set: AUG-CC-PVTZ
    Blend: AUG-CC-PVTZ
  Basis Set: (AUG-CC-PVTZ AUX)
    Blend: AUG-CC-PVTZ-JKFIT
  @DF-RHF Final Energy: -2648.58528186206604
    Total Energy =                      -2648.5852818620660400
 Dipole X            :       -318.5502223          308.9001580           -9.6500643
 Dipole Y            :         -0.0000000            0.0000000           -0.0000000
 Dipole Z            :          0.0000000            0.0000000            0.0000000
 Magnitude           :                                                    9.6500643
  //            Monomer A HF           //
    Molecular point group: c1
  Multiplicity = 1
  Basis Set: AUG-CC-PVTZ
    Blend: AUG-CC-PVTZ
  Basis Set: (AUG-CC-PVTZ AUX)
    Blend: AUG-CC-PVTZ-JKFIT
  @DF-RHF Final Energy:   -76.06048169720583
    Total Energy =                        -76.0604816972058302
  //            Monomer B HF           //
    Molecular point group: c1

    Geometry (in Angstrom), charge = -1, multiplicity = 1:

       Center              X                  Y                   Z               Mass
    ------------   -----------------  -----------------  -----------------  -----------------
      Gh(O)           0.000000000000     0.000000000000     0.000000000000    15.994914619570
      Gh(H)          -0.588538000000     0.756918000000     0.000000000000     1.007825032230
      Gh(H)          -0.588538000000    -0.756918000000     0.000000000000     1.007825032230
         BR           4.704000000000     0.000000000000     0.000000000000    78.918337600000

  Charge       = -1
  Multiplicity = 1
  Basis Set: AUG-CC-PVTZ
    Blend: AUG-CC-PVTZ
  Basis Set: (AUG-CC-PVTZ AUX)
    Blend: AUG-CC-PVTZ-JKFIT

    Orbital Energies [Eh]
    ---------------------

    Doubly Occupied:

       1A   -489.720349     2A    -64.860445     3A    -58.214913
       4A    -58.214912     5A    -58.214911     6A     -9.532852
       7A     -7.140192     8A     -7.140192     9A     -7.140191
      10A     -2.881858    11A     -2.881858    12A     -2.881858
      13A     -2.881857    14A     -2.881852    15A     -0.686001
      16A     -0.139337    17A     -0.139337    18A     -0.139337

  @DF-RHF Final Energy: -2572.53366796056935

   => Energetics <=

    Nuclear Repulsion Energy =              0.0000000000000000
    One-Electron Energy =               -3593.6828291582505699
    Two-Electron Energy =                1021.1491611976812237
    Total Energy =                      -2572.5336679605693462
 Dipole X            :       -320.0136448          311.1245093           -8.8891355
 Dipole Y            :         -0.0000000            0.0000000           -0.0000000
 Dipole Z            :         -0.0000000            0.0000000           -0.0000000
 Magnitude           :                                                    8.8891355

    SAPT Results
  --------------------------------------------------------------------------------------------------------
    Electrostatics                  8.75603801 [mEh]       5.49449680 [kcal/mol]      22.98897462 [kJ/mol]
      Elst10,r                      9.40399698 [mEh]       5.90109720 [kcal/mol]      24.69019068 [kJ/mol]
      Elst12,r                     -0.64795898 [mEh]      -0.40660040 [kcal/mol]      -1.70121606 [kJ/mol]

    Exchange                        0.21269534 [mEh]       0.13346834 [kcal/mol]       0.55843154 [kJ/mol]
      Exch10                        0.17498823 [mEh]       0.10980677 [kcal/mol]       0.45943153 [kJ/mol]
      Exch10(S^2)                   0.17496393 [mEh]       0.10979153 [kcal/mol]       0.45936774 [kJ/mol]
      Exch11(S^2)                  -0.00775098 [mEh]      -0.00486381 [kcal/mol]      -0.02035019 [kJ/mol]
      Exch12(S^2)                   0.04545809 [mEh]       0.02852538 [kcal/mol]       0.11935020 [kJ/mol]

    Induction                      -0.78517769 [mEh]      -0.49270644 [kcal/mol]      -2.06148374 [kJ/mol]
      Ind20,r                      -0.84330718 [mEh]      -0.52918324 [kcal/mol]      -2.21410269 [kJ/mol]
      Ind22                        -0.08629979 [mEh]      -0.05415394 [kcal/mol]      -0.22658007 [kJ/mol]
      Exch-Ind20,r                  0.12030693 [mEh]       0.07549374 [kcal/mol]       0.31586581 [kJ/mol]
      Exch-Ind22                    0.01231160 [mEh]       0.00772565 [kcal/mol]       0.03232411 [kJ/mol]
      delta HF,r (2)                0.01181074 [mEh]       0.00741135 [kcal/mol]       0.03100910 [kJ/mol]

    Dispersion                     -0.38500829 [mEh]      -0.24159635 [kcal/mol]      -1.01083914 [kJ/mol]
      Disp20                       -0.37705725 [mEh]      -0.23660700 [kcal/mol]      -0.98996368 [kJ/mol]
      Disp21                        0.03964166 [mEh]       0.02487552 [kcal/mol]       0.10407916 [kJ/mol]
      Disp22 (SDQ)                 -0.00757497 [mEh]      -0.00475337 [kcal/mol]      -0.01988809 [kJ/mol]
      Disp22 (T)                   -0.06302850 [mEh]      -0.03955098 [kcal/mol]      -0.16548131 [kJ/mol]
      Est. Disp22 (T)              -0.07315462 [mEh]      -0.04590522 [kcal/mol]      -0.19206742 [kJ/mol]
      Exch-Disp20                   0.03313689 [mEh]       0.02079371 [kcal/mol]       0.08700089 [kJ/mol]

  Total HF                          8.86779571 [mEh]       5.56462582 [kcal/mol]      23.28239443 [kJ/mol]
  Total SAPT0                       8.52387535 [mEh]       5.34881253 [kcal/mol]      22.37943164 [kJ/mol]
  Total SAPT2                       7.83963530 [mEh]       4.91944542 [kcal/mol]      20.58295963 [kJ/mol]
  Total SAPT2+                      7.79854736 [mEh]       4.89366235 [kcal/mol]      20.47508328 [kJ/mol]

  Special recipe for scaled SAPT0 (see Manual):
    Electrostatics sSAPT0           9.40399698 [mEh]       5.90109720 [kcal/mol]      24.69019068 [kJ/mol]
    Exchange sSAPT0                 0.17498823 [mEh]       0.10980677 [kcal/mol]       0.45943153 [kJ/mol]
    Induction sSAPT0               -0.71113938 [mEh]      -0.44624670 [kcal/mol]      -1.86709618 [kJ/mol]
    Dispersion sSAPT0              -0.34390656 [mEh]      -0.21580462 [kcal/mol]      -0.90292654 [kJ/mol]
  Total sSAPT0                      8.52393928 [mEh]       5.34885265 [kcal/mol]      22.37959949 [kJ/mol]
  --------------------------------------------------------------------------------------------------------

*** Psi4 exiting successfully. Buy a developer a beer!
