                               Psi4 1.9 release

  ==> Input File <==

--------------------------------------------------------------------------
MEMORY 60 GB

molecule dimer {
0 1
O      0.000000     0.000000     0.000000
H     -0.588538     0.756918     0.000000
H     -0.588538    -0.756918     0.000000
--
-1 1
Br     4.368000     0.000000     0.000000

units ang
no_reorient
no_com
symmetry c1
}

set {
basis        aug-cc-pVTZ
scf_type     df
}

energy("sapt2+")
--------------------------------------------------------------------------

  //              Dimer HF             //
    Molecular point group: c1
  Charge       = -1
  Multiplicity = 1
  Basis Set: AUG-CC-PVTZ
    Blend: AUG-CC-PVTZ
  Basis Set: (AUG-CC-PVTZ AUX)
    Blend: AUG-CC-PVTZ-JKFIT
  @DF-RHF Final Energy: -2648.58397715994624
    Total Energy =                      -2648.5839771599462438
 Dipole X            :       -295.6960637          286.6769788           -9.0190849
 Dipole Y            :          0.0000000            0.0000000            0.0000000
 Dipole Z            :         -0.0000000            0.0000000           -0.0000000
 Magnitude           :                                                    9.0190849
  //            Monomer A HF           //
    Molecular point group: c1
  Multiplicity = 1
  Basis Set: AUG-CC-PVTZ
    Blend: AUG-CC-PVTZ
  Basis Set: (AUG-CC-PVTZ AUX)
    Blend: AUG-CC-PVTZ-JKFIT
  @DF-RHF Final Energy:   -76.06048294080540
    Total Energy =                        -76.0604829408054144
  //            Monomer B HF           //
    Molecular point group: c1

    Geometry (in Angstrom), charge = -1, multiplicity = 1:

       Center              X                  Y                   Z               Mass
    ------------   -----------------  -----------------  -----------------  -----------------
      Gh(O)           0.000000000000     0.000000000000     0.000000000000    15.994914619570
      Gh(H)          -0.588538000000     0.756918000000     0.000000000000     1.007825032230
      Gh(H)          -0.588538000000    -0.756918000000     0.000000000000     1.007825032230
         BR           4.368000000000     0.000000000000     0.000000000000    78.918337600000

  Charge       = -1
  Multiplicity = 1
  Basis Set: AUG-CC-PVTZ
    Blend: AUG-CC-PVTZ
  Basis Set: (AUG-CC-PVTZ AUX)
    Blend: AUG-CC-PVTZ-JKFIT

    Orbital Energies [Eh]
    ---------------------

    Doubly Occupied:

       1A   -489.720368     2A    -64.860459     3A    -58.214927
       4A    -58.214927     5A    -58.214926     6A     -9.532856
       7A     -7.140196     8A     -7.140196     9A     -7.140194
      10A     -2.881863    11A     -2.881863    12A     -2.881862
      13A     -2.881862    14A     -2.881856    15A     -0.686000
      16A     -0.139338    17A     -0.139336    18A     -0.139336

  @DF-RHF Final Energy: -2572.53366880049180

   => Energetics <=

    Nuclear Repulsion Energy =              0.0000000000000000
    One-Electron Energy =               -3593.6826019399600227
    Two-Electron Energy =                1021.1489331394682267
    Total Energy =                      -2572.5336688004917960
 Dipole X            :       -297.1554471          288.9013301           -8.2541171
 Dipole Y            :          0.0000000            0.0000000            0.0000000
 Dipole Z            :          0.0000000            0.0000000            0.0000000
 Magnitude           :                                                    8.2541171

    SAPT Results
  --------------------------------------------------------------------------------------------------------
    Electrostatics                  9.94858320 [mEh]       6.24283021 [kcal/mol]      26.12000158 [kJ/mol]
      Elst10,r                     10.72782695 [mEh]       6.73181304 [kcal/mol]      28.16590578 [kJ/mol]
      Elst12,r                     -0.77924375 [mEh]      -0.48898284 [kcal/mol]      -2.04590419 [kJ/mol]

    Exchange                        0.49404678 [mEh]       0.31001903 [kcal/mol]       1.29711964 [kJ/mol]
      Exch10                        0.41389087 [mEh]       0.25972044 [kcal/mol]       1.08667034 [kJ/mol]
      Exch10(S^2)                   0.41376151 [mEh]       0.25963927 [kcal/mol]       1.08633069 [kJ/mol]
      Exch11(S^2)                  -0.01531575 [mEh]      -0.00961078 [kcal/mol]      -0.04021150 [kJ/mol]
      Exch12(S^2)                   0.09547165 [mEh]       0.05990937 [kcal/mol]       0.25066079 [kJ/mol]

    Induction                      -1.07078848 [mEh]      -0.67192992 [kcal/mol]      -2.81135478 [kJ/mol]
      Ind20,r                      -1.25281169 [mEh]      -0.78615120 [kcal/mol]      -3.28925664 [kJ/mol]
      Ind22                        -0.13425153 [mEh]      -0.08424410 [kcal/mol]      -0.35247733 [kJ/mol]
      Exch-Ind20,r                  0.28554932 [mEh]       0.17918490 [kcal/mol]       0.74970962 [kJ/mol]
      Exch-Ind22                    0.03059952 [mEh]       0.01920149 [kcal/mol]       0.08033902 [kJ/mol]
      delta HF,r (2)                0.00012590 [mEh]       0.00007900 [kcal/mol]       0.00033055 [kJ/mol]

    Dispersion                     -0.62402541 [mEh]      -0.39158186 [kcal/mol]      -1.63837848 [kJ/mol]
      Disp20                       -0.62939741 [mEh]      -0.39495284 [kcal/mol]      -1.65248268 [kJ/mol]
      Disp21                        0.06289739 [mEh]       0.03946871 [kcal/mol]       0.16513707 [kJ/mol]
      Disp22 (SDQ)                 -0.01218775 [mEh]      -0.00764793 [kcal/mol]      -0.03199893 [kJ/mol]
      Disp22 (T)                   -0.10092701 [mEh]      -0.06333266 [kcal/mol]      -0.26498383 [kJ/mol]
      Est. Disp22 (T)              -0.12045610 [mEh]      -0.07558734 [kcal/mol]      -0.31625745 [kJ/mol]
      Exch-Disp20                   0.07511846 [mEh]       0.04713755 [kcal/mol]       0.19722350 [kJ/mol]

  Total HF                         10.17458135 [mEh]       6.38464619 [kcal/mol]      26.71335966 [kJ/mol]
  Total SAPT0                       9.62030240 [mEh]       6.03683090 [kcal/mol]      25.25810048 [kJ/mol]
  Total SAPT2                       8.81756254 [mEh]       5.53310403 [kcal/mol]      23.15050727 [kJ/mol]
  Total SAPT2+                      8.74781608 [mEh]       5.48933747 [kcal/mol]      22.96738796 [kJ/mol]

  Special recipe for scaled SAPT0 (see Manual):
    Electrostatics sSAPT0          10.72782695 [mEh]       6.73181304 [kcal/mol]      28.16590578 [kJ/mol]
    Exchange sSAPT0                 0.41389087 [mEh]       0.25972044 [kcal/mol]       1.08667034 [kJ/mol]
    Induction sSAPT0               -0.96686855 [mEh]      -0.60671918 [kcal/mol]      -2.53851304 [kJ/mol]
    Dispersion sSAPT0              -0.55420847 [mEh]      -0.34777106 [kcal/mol]      -1.45507413 [kJ/mol]
  Total sSAPT0                      9.62064080 [mEh]       6.03704325 [kcal/mol]      25.25898895 [kJ/mol]
  --------------------------------------------------------------------------------------------------------

*** Psi4 exiting successfully. Buy a developer a beer!
