                               Psi4 1.9 release

  ==> Input File <==

--------------------------------------------------------------------------
MEMORY 60 GB

molecule dimer {
0 1
O      0.000000     0.000000     0.000000
H     -0.588538     0.000000     0.756918
H     -0.588538     0.000000    -0.756918
--
2 1
Li     1.832821     1.832821     0.000000
Li     1.832821    -1.832821     0.000000

units ang
no_reorient
no_com
symmetry c1
}

set {
basis        aug-cc-pVTZ
scf_type     df
}

energy("sapt2+")
--------------------------------------------------------------------------

  //              Dimer HF             //
    Molecular point group: c1
  Charge       = 2
  Multiplicity = 1
  Basis Set: AUG-CC-PVTZ
    Blend: AUG-CC-PVTZ
  Basis Set: (AUG-CC-PVTZ AUX)
    Blend: AUG-CC-PVTZ-JKFIT + DEF2-UNIVERSAL-JKFIT
  @DF-RHF Final Energy:   -90.45633800839607
    Total Energy =                        -90.4563380083960737
 Dipole X            :        -12.8982135           18.5568271            5.6586136
 Dipole Y            :         -0.0000000            0.0000000           -0.0000000
 Dipole Z            :         -0.0000000            0.0000000           -0.0000000
 Magnitude           :                                                    5.6586136
  //            Monomer A HF           //
    Molecular point group: c1
  Multiplicity = 1
  Basis Set: AUG-CC-PVTZ
    Blend: AUG-CC-PVTZ
  Basis Set: (AUG-CC-PVTZ AUX)
    Blend: AUG-CC-PVTZ-JKFIT + DEF2-UNIVERSAL-JKFIT
  @DF-RHF Final Energy:   -76.06058611142481
    Total Energy =                        -76.0605861114248114
  //            Monomer B HF           //
    Molecular point group: c1

    Geometry (in Angstrom), charge = 2, multiplicity = 1:

       Center              X                  Y                   Z               Mass
    ------------   -----------------  -----------------  -----------------  -----------------
      Gh(O)           0.000000000000     0.000000000000     0.000000000000    15.994914619570
      Gh(H)          -0.588538000000     0.000000000000     0.756918000000     1.007825032230
      Gh(H)          -0.588538000000     0.000000000000    -0.756918000000     1.007825032230
         LI           1.832821000000     1.832821000000     0.000000000000     7.016003436600
         LI           1.832821000000    -1.832821000000     0.000000000000     7.016003436600

  Charge       = 2
  Multiplicity = 1
  Basis Set: AUG-CC-PVTZ
    Blend: AUG-CC-PVTZ
  Basis Set: (AUG-CC-PVTZ AUX)
    Blend: AUG-CC-PVTZ-JKFIT + DEF2-UNIVERSAL-JKFIT

    Orbital Energies [Eh]
    ---------------------

    Doubly Occupied:

       1A     -2.936709     2A     -2.936701

  @DF-RHF Final Energy:   -14.32846510867311

   => Energetics <=

    Nuclear Repulsion Energy =              1.2992525991436152
    One-Electron Energy =                 -19.5086146875596356
    Two-Electron Energy =                   3.8808969797429125
    Total Energy =                        -14.3284651086731092
 Dipole X            :        -13.8538761           20.7811784            6.9273023
 Dipole Y            :          0.0000000            0.0000000            0.0000000
 Dipole Z            :         -0.0000000            0.0000000           -0.0000000
 Magnitude           :                                                    6.9273023

    SAPT Results
  --------------------------------------------------------------------------------------------------------
    Electrostatics                -51.63240207 [mEh]     -32.39982145 [kcal/mol]    -135.56085296 [kJ/mol]
      Elst10,r                    -54.20103051 [mEh]     -34.01166014 [kcal/mol]    -142.30478601 [kJ/mol]
      Elst12,r                      2.56862844 [mEh]       1.61183868 [kcal/mol]       6.74393305 [kJ/mol]

    Exchange                        2.45275176 [mEh]       1.53912497 [kcal/mol]       6.43969886 [kJ/mol]
      Exch10                        2.04085412 [mEh]       1.28065530 [kcal/mol]       5.35826176 [kJ/mol]
      Exch10(S^2)                   2.04029564 [mEh]       1.28030484 [kcal/mol]       5.35679546 [kJ/mol]
      Exch11(S^2)                   0.00632378 [mEh]       0.00396823 [kcal/mol]       0.01660309 [kJ/mol]
      Exch12(S^2)                   0.40557386 [mEh]       0.25450144 [kcal/mol]       1.06483402 [kJ/mol]

    Induction                     -16.79003951 [mEh]     -10.53590886 [kcal/mol]     -44.08224265 [kJ/mol]
      Ind20,r                     -16.71979629 [mEh]     -10.49183057 [kcal/mol]     -43.89781910 [kJ/mol]
      Ind22                        -1.88452621 [mEh]      -1.18255805 [kcal/mol]      -4.94782289 [kJ/mol]
      Exch-Ind20,r                  1.96161968 [mEh]       1.23093493 [kcal/mol]       5.15023177 [kJ/mol]
      Exch-Ind22                    0.22109861 [mEh]       0.13874147 [kcal/mol]       0.58049432 [kJ/mol]
      delta HF,r (2)               -0.36843530 [mEh]      -0.23119664 [kcal/mol]      -0.96732675 [kJ/mol]

    Dispersion                     -0.24039549 [mEh]      -0.15085045 [kcal/mol]      -0.63115827 [kJ/mol]
      Disp20                       -0.21643604 [mEh]      -0.13581567 [kcal/mol]      -0.56825274 [kJ/mol]
      Disp21                       -0.01595991 [mEh]      -0.01001500 [kcal/mol]      -0.04190274 [kJ/mol]
      Disp22 (SDQ)                 -0.00779332 [mEh]      -0.00489038 [kcal/mol]      -0.02046136 [kJ/mol]
      Disp22 (T)                   -0.01390160 [mEh]      -0.00872338 [kcal/mol]      -0.03649864 [kJ/mol]
      Est. Disp22 (T)              -0.01699658 [mEh]      -0.01066551 [kcal/mol]      -0.04462450 [kJ/mol]
      Exch-Disp20                   0.01679035 [mEh]       0.01053611 [kcal/mol]       0.04408307 [kJ/mol]

  Total HF                        -67.28678830 [mEh]     -42.22309712 [kcal/mol]    -176.66143834 [kJ/mol]
  Total SAPT0                     -67.48643398 [mEh]     -42.34837668 [kcal/mol]    -177.18560801 [kJ/mol]
  Total SAPT2                     -66.16933550 [mEh]     -41.52188490 [kcal/mol]    -173.72756643 [kJ/mol]
  Total SAPT2+                    -66.21008531 [mEh]     -41.54745579 [kcal/mol]    -173.83455503 [kJ/mol]

  Special recipe for scaled SAPT0 (see Manual):
    Electrostatics sSAPT0         -54.20103051 [mEh]     -34.01166014 [kcal/mol]    -142.30478601 [kJ/mol]
    Exchange sSAPT0                 2.04085412 [mEh]       1.28065530 [kcal/mol]       5.35826176 [kJ/mol]
    Induction sSAPT0              -15.12500062 [mEh]      -9.49108118 [kcal/mol]     -39.71068365 [kJ/mol]
    Dispersion sSAPT0              -0.19963189 [mEh]      -0.12527090 [kcal/mol]      -0.52413346 [kJ/mol]
  Total sSAPT0                    -67.48480890 [mEh]     -42.34735692 [kcal/mol]    -177.18134137 [kJ/mol]
  --------------------------------------------------------------------------------------------------------

*** Psi4 exiting successfully. Buy a developer a beer!
