                               Psi4 1.9 release

  ==> Input File <==

--------------------------------------------------------------------------
MEMORY 60 GB

molecule dimer {
0 1
O      0.000000     0.000000     0.000000
H     -0.588538     0.000000     0.756918
H     -0.588538     0.000000    -0.756918
--
2 1
Li     3.054701     3.054701     0.000000
Li     3.054701    -3.054701     0.000000

units ang
no_reorient
no_com
symmetry c1
}

set {
basis        aug-cc-pVTZ
scf_type     df
}

energy("sapt2+")
--------------------------------------------------------------------------

  //              Dimer HF             //
    Molecular point group: c1
  Charge       = 2
  Multiplicity = 1
  Basis Set: AUG-CC-PVTZ
    Blend: AUG-CC-PVTZ
  Basis Set: (AUG-CC-PVTZ AUX)
    Blend: AUG-CC-PVTZ-JKFIT + DEF2-UNIVERSAL-JKFIT
  @DF-RHF Final Energy:   -90.46755162617943
    Total Energy =                        -90.4675516261794428
 Dipole X            :        -21.8318210           32.4109384           10.5791174
 Dipole Y            :          0.0000000            0.0000000            0.0000000
 Dipole Z            :          0.0000000            0.0000000            0.0000000
 Magnitude           :                                                   10.5791174
  //            Monomer A HF           //
    Molecular point group: c1
  Multiplicity = 1
  Basis Set: AUG-CC-PVTZ
    Blend: AUG-CC-PVTZ
  Basis Set: (AUG-CC-PVTZ AUX)
    Blend: AUG-CC-PVTZ-JKFIT + DEF2-UNIVERSAL-JKFIT
  @DF-RHF Final Energy:   -76.06049639064000
    Total Energy =                        -76.0604963906399973
  //            Monomer B HF           //
    Molecular point group: c1

    Geometry (in Angstrom), charge = 2, multiplicity = 1:

       Center              X                  Y                   Z               Mass
    ------------   -----------------  -----------------  -----------------  -----------------
      Gh(O)           0.000000000000     0.000000000000     0.000000000000    15.994914619570
      Gh(H)          -0.588538000000     0.000000000000     0.756918000000     1.007825032230
      Gh(H)          -0.588538000000     0.000000000000    -0.756918000000     1.007825032230
         LI           3.054701000000     3.054701000000     0.000000000000     7.016003436600
         LI           3.054701000000    -3.054701000000     0.000000000000     7.016003436600

  Charge       = 2
  Multiplicity = 1
  Basis Set: AUG-CC-PVTZ
    Blend: AUG-CC-PVTZ
  Basis Set: (AUG-CC-PVTZ AUX)
    Blend: AUG-CC-PVTZ-JKFIT + DEF2-UNIVERSAL-JKFIT

    Orbital Energies [Eh]
    ---------------------

    Doubly Occupied:

       1A     -2.878977     2A     -2.878977

  @DF-RHF Final Energy:   -14.38615523085701

   => Energetics <=

    Nuclear Repulsion Energy =              0.7795517296177269
    One-Electron Energy =                 -18.8155066166480118
    Two-Electron Energy =                   3.6497996561732773
    Total Energy =                        -14.3861552308570086
 Dipole X            :        -23.0901764           34.6352897           11.5451133
 Dipole Y            :          0.0000000            0.0000000            0.0000000
 Dipole Z            :          0.0000000            0.0000000            0.0000000
 Magnitude           :                                                   11.5451133

    SAPT Results
  --------------------------------------------------------------------------------------------------------
    Electrostatics                -17.92873178 [mEh]     -11.25044905 [kcal/mol]     -47.07187881 [kJ/mol]
      Elst10,r                    -18.89854263 [mEh]     -11.85901454 [kcal/mol]     -49.61811683 [kJ/mol]
      Elst12,r                      0.96981084 [mEh]       0.60856549 [kcal/mol]       2.54623802 [kJ/mol]

    Exchange                        0.00364814 [mEh]       0.00228924 [kcal/mol]       0.00957818 [kJ/mol]
      Exch10                        0.00245602 [mEh]       0.00154117 [kcal/mol]       0.00644827 [kJ/mol]
      Exch10(S^2)                   0.00245602 [mEh]       0.00154117 [kcal/mol]       0.00644827 [kJ/mol]
      Exch11(S^2)                   0.00000386 [mEh]       0.00000242 [kcal/mol]       0.00001015 [kJ/mol]
      Exch12(S^2)                   0.00118826 [mEh]       0.00074564 [kcal/mol]       0.00311977 [kJ/mol]

    Induction                      -2.21885391 [mEh]      -1.39235185 [kcal/mol]      -5.82560014 [kJ/mol]
      Ind20,r                      -1.96606996 [mEh]      -1.23372753 [kcal/mol]      -5.16191598 [kJ/mol]
      Ind22                        -0.21530852 [mEh]      -0.13510814 [kcal/mol]      -0.56529245 [kJ/mol]
      Exch-Ind20,r                  0.00340312 [mEh]       0.00213549 [kcal/mol]       0.00893489 [kJ/mol]
      Exch-Ind22                    0.00037268 [mEh]       0.00023386 [kcal/mol]       0.00097848 [kJ/mol]
      delta HF,r (2)               -0.04125123 [mEh]      -0.02588554 [kcal/mol]      -0.10830508 [kJ/mol]

    Dispersion                     -0.00742956 [mEh]      -0.00466212 [kcal/mol]      -0.01950630 [kJ/mol]
      Disp20                       -0.00643718 [mEh]      -0.00403939 [kcal/mol]      -0.01690082 [kJ/mol]
      Disp21                       -0.00029286 [mEh]      -0.00018377 [kcal/mol]      -0.00076889 [kJ/mol]
      Disp22 (SDQ)                 -0.00019943 [mEh]      -0.00012514 [kcal/mol]      -0.00052359 [kJ/mol]
      Disp22 (T)                   -0.00048691 [mEh]      -0.00030554 [kcal/mol]      -0.00127838 [kJ/mol]
      Est. Disp22 (T)              -0.00053441 [mEh]      -0.00033535 [kcal/mol]      -0.00140309 [kJ/mol]
      Exch-Disp20                   0.00003432 [mEh]       0.00002153 [kcal/mol]       0.00009010 [kJ/mol]

  Total HF                        -20.90000468 [mEh]     -13.11495094 [kcal/mol]     -54.87295473 [kJ/mol]
  Total SAPT0                     -20.90640755 [mEh]     -13.11896880 [kcal/mol]     -54.88976546 [kJ/mol]
  Total SAPT2                     -20.15034042 [mEh]     -12.64452952 [kcal/mol]     -52.90471149 [kJ/mol]
  Total SAPT2+                    -20.15136712 [mEh]     -12.64517377 [kcal/mol]     -52.90740707 [kJ/mol]

  Special recipe for scaled SAPT0 (see Manual):
    Electrostatics sSAPT0         -18.89854263 [mEh]     -11.85901454 [kcal/mol]     -49.61811683 [kJ/mol]
    Exchange sSAPT0                 0.00245602 [mEh]       0.00154117 [kcal/mol]       0.00644827 [kJ/mol]
    Induction sSAPT0               -2.00391807 [mEh]      -1.25747757 [kcal/mol]      -5.26128617 [kJ/mol]
    Dispersion sSAPT0              -0.00640287 [mEh]      -0.00401786 [kcal/mol]      -0.01681073 [kJ/mol]
  Total sSAPT0                    -20.90640755 [mEh]     -13.11896880 [kcal/mol]     -54.88976546 [kJ/mol]
  --------------------------------------------------------------------------------------------------------

*** Psi4 exiting successfully. Buy a developer a beer!
