                               Psi4 1.9 release

  ==> Input File <==

--------------------------------------------------------------------------
MEMORY 60 GB

molecule dimer {
0 1
O      0.000000     0.000000     0.000000
H     -0.588538     0.000000     0.756918
H     -0.588538     0.000000    -0.756918
--
2 1
Li     1.985556     1.985556     0.000000
Li     1.985556    -1.985556     0.000000

units ang
no_reorient
no_com
symmetry c1
}

set {
basis        aug-cc-pVTZ
scf_type     df
}

energy("sapt2+")
--------------------------------------------------------------------------

  //              Dimer HF             //
    Molecular point group: c1
  Charge       = 2
  Multiplicity = 1
  Basis Set: AUG-CC-PVTZ
    Blend: AUG-CC-PVTZ
  Basis Set: (AUG-CC-PVTZ AUX)
    Blend: AUG-CC-PVTZ-JKFIT + DEF2-UNIVERSAL-JKFIT
  @DF-RHF Final Energy:   -90.45667916798560
    Total Energy =                        -90.4566791679855839
 Dipole X            :        -13.9965389           20.2885910            6.2920521
 Dipole Y            :         -0.0000000            0.0000000           -0.0000000
 Dipole Z            :         -0.0000000            0.0000000           -0.0000000
 Magnitude           :                                                    6.2920521
  //            Monomer A HF           //
    Molecular point group: c1
  Multiplicity = 1
  Basis Set: AUG-CC-PVTZ
    Blend: AUG-CC-PVTZ
  Basis Set: (AUG-CC-PVTZ AUX)
    Blend: AUG-CC-PVTZ-JKFIT + DEF2-UNIVERSAL-JKFIT
  @DF-RHF Final Energy:   -76.06056077491203
    Total Energy =                        -76.0605607749120338
  //            Monomer B HF           //
    Molecular point group: c1

    Geometry (in Angstrom), charge = 2, multiplicity = 1:

       Center              X                  Y                   Z               Mass
    ------------   -----------------  -----------------  -----------------  -----------------
      Gh(O)           0.000000000000     0.000000000000     0.000000000000    15.994914619570
      Gh(H)          -0.588538000000     0.000000000000     0.756918000000     1.007825032230
      Gh(H)          -0.588538000000     0.000000000000    -0.756918000000     1.007825032230
         LI           1.985556000000     1.985556000000     0.000000000000     7.016003436600
         LI           1.985556000000    -1.985556000000     0.000000000000     7.016003436600

  Charge       = 2
  Multiplicity = 1
  Basis Set: AUG-CC-PVTZ
    Blend: AUG-CC-PVTZ
  Basis Set: (AUG-CC-PVTZ AUX)
    Blend: AUG-CC-PVTZ-JKFIT + DEF2-UNIVERSAL-JKFIT

    Orbital Energies [Eh]
    ---------------------

    Doubly Occupied:

       1A     -2.925606     2A     -2.925605

  @DF-RHF Final Energy:   -14.33955166464474

   => Energetics <=

    Nuclear Repulsion Energy =              1.1993101418519547
    One-Electron Energy =                 -19.3753018731663609
    Two-Electron Energy =                   3.8364400666696676
    Total Energy =                        -14.3395516646447376
 Dipole X            :        -15.0085232           22.5129423            7.5044191
 Dipole Y            :         -0.0000000            0.0000000           -0.0000000
 Dipole Z            :          0.0000000            0.0000000            0.0000000
 Magnitude           :                                                    7.5044191

    SAPT Results
  --------------------------------------------------------------------------------------------------------
    Electrostatics                -43.82633241 [mEh]     -27.50143879 [kcal/mol]    -115.06601990 [kJ/mol]
      Elst10,r                    -46.01408701 [mEh]     -28.87427553 [kcal/mol]    -120.80996880 [kJ/mol]
      Elst12,r                      2.18775460 [mEh]       1.37283674 [kcal/mol]       5.74394891 [kJ/mol]

    Exchange                        1.05972024 [mEh]       0.66498449 [kcal/mol]       2.78229512 [kJ/mol]
      Exch10                        0.85376731 [mEh]       0.53574707 [kcal/mol]       2.24156575 [kJ/mol]
      Exch10(S^2)                   0.85366820 [mEh]       0.53568488 [kcal/mol]       2.24130554 [kJ/mol]
      Exch11(S^2)                   0.00260239 [mEh]       0.00163302 [kcal/mol]       0.00683258 [kJ/mol]
      Exch12(S^2)                   0.20335055 [mEh]       0.12760440 [kcal/mol]       0.53389679 [kJ/mol]

    Induction                     -12.65683055 [mEh]      -7.94228108 [kcal/mol]     -33.23050402 [kJ/mol]
      Ind20,r                     -11.88919007 [mEh]      -7.46057941 [kcal/mol]     -31.21506424 [kJ/mol]
      Ind22                        -1.34983522 [mEh]      -0.84703439 [kcal/mol]      -3.54399189 [kJ/mol]
      Exch-Ind20,r                  0.87562155 [mEh]       0.54946082 [kcal/mol]       2.29894407 [kJ/mol]
      Exch-Ind22                    0.09941340 [mEh]       0.06238285 [kcal/mol]       0.26100985 [kJ/mol]
      delta HF,r (2)               -0.39284020 [mEh]      -0.24651095 [kcal/mol]      -1.03140181 [kJ/mol]

    Dispersion                     -0.13965921 [mEh]      -0.08763747 [kcal/mol]      -0.36667520 [kJ/mol]
      Disp20                       -0.12366180 [mEh]      -0.07759895 [kcal/mol]      -0.32467401 [kJ/mol]
      Disp21                       -0.00890839 [mEh]      -0.00559010 [kcal/mol]      -0.02338896 [kJ/mol]
      Disp22 (SDQ)                 -0.00485854 [mEh]      -0.00304878 [kcal/mol]      -0.01275610 [kJ/mol]
      Disp22 (T)                   -0.00835107 [mEh]      -0.00524038 [kcal/mol]      -0.02192574 [kJ/mol]
      Est. Disp22 (T)              -0.00998935 [mEh]      -0.00626841 [kcal/mol]      -0.02622704 [kJ/mol]
      Exch-Disp20                   0.00775887 [mEh]       0.00486877 [kcal/mol]       0.02037092 [kJ/mol]

  Total HF                        -56.56672843 [mEh]     -35.49615799 [kcal/mol]    -148.51592503 [kJ/mol]
  Total SAPT0                     -56.68263135 [mEh]     -35.56888817 [kcal/mol]    -148.82022812 [kJ/mol]
  Total SAPT2                     -55.53934564 [mEh]     -34.85146556 [kcal/mol]    -145.81853189 [kJ/mol]
  Total SAPT2+                    -55.56310192 [mEh]     -34.86637285 [kcal/mol]    -145.88090399 [kJ/mol]

  Special recipe for scaled SAPT0 (see Manual):
    Electrostatics sSAPT0         -46.01408701 [mEh]     -28.87427553 [kcal/mol]    -120.80996880 [kJ/mol]
    Exchange sSAPT0                 0.85376731 [mEh]       0.53574707 [kcal/mol]       2.24156575 [kJ/mol]
    Induction sSAPT0              -11.40610372 [mEh]      -7.15743814 [kcal/mol]     -29.94672118 [kJ/mol]
    Dispersion sSAPT0              -0.11590022 [mEh]      -0.07272849 [kcal/mol]      -0.30429599 [kJ/mol]
  Total sSAPT0                    -56.68232365 [mEh]     -35.56869508 [kcal/mol]    -148.81942023 [kJ/mol]
  --------------------------------------------------------------------------------------------------------

*** Psi4 exiting successfully. Buy a developer a beer!
