                               Psi4 1.9 release

  ==> Input File <==

--------------------------------------------------------------------------
MEMORY 60 GB

molecule dimer {
0 1
O      0.000000     0.000000     0.000000
H     -0.588538     0.000000     0.756918
H     -0.588538     0.000000    -0.756918
--
2 1
Li     2.291026     2.291026     0.000000
Li     2.291026    -2.291026     0.000000

units ang
no_reorient
no_com
symmetry c1
}

set {
basis        aug-cc-pVTZ
scf_type     df
}

energy("sapt2+")
--------------------------------------------------------------------------

  //              Dimer HF             //
    Molecular point group: c1
  Charge       = 2
  Multiplicity = 1
  Basis Set: AUG-CC-PVTZ
    Blend: AUG-CC-PVTZ
  Basis Set: (AUG-CC-PVTZ AUX)
    Blend: AUG-CC-PVTZ-JKFIT + DEF2-UNIVERSAL-JKFIT
  @DF-RHF Final Energy:   -90.45854788870768
    Total Energy =                        -90.4585478887076846
 Dipole X            :        -16.2075308           23.7521188            7.5445881
 Dipole Y            :          0.0000000            0.0000000            0.0000000
 Dipole Z            :         -0.0000000            0.0000000           -0.0000000
 Magnitude           :                                                    7.5445881
  //            Monomer A HF           //
    Molecular point group: c1
  Multiplicity = 1
  Basis Set: AUG-CC-PVTZ
    Blend: AUG-CC-PVTZ
  Basis Set: (AUG-CC-PVTZ AUX)
    Blend: AUG-CC-PVTZ-JKFIT + DEF2-UNIVERSAL-JKFIT
  @DF-RHF Final Energy:   -76.06052193831066
    Total Energy =                        -76.0605219383106572
  //            Monomer B HF           //
    Molecular point group: c1

    Geometry (in Angstrom), charge = 2, multiplicity = 1:

       Center              X                  Y                   Z               Mass
    ------------   -----------------  -----------------  -----------------  -----------------
      Gh(O)           0.000000000000     0.000000000000     0.000000000000    15.994914619570
      Gh(H)          -0.588538000000     0.000000000000     0.756918000000     1.007825032230
      Gh(H)          -0.588538000000     0.000000000000    -0.756918000000     1.007825032230
         LI           2.291026000000     2.291026000000     0.000000000000     7.016003436600
         LI           2.291026000000    -2.291026000000     0.000000000000     7.016003436600

  Charge       = 2
  Multiplicity = 1
  Basis Set: AUG-CC-PVTZ
    Blend: AUG-CC-PVTZ
  Basis Set: (AUG-CC-PVTZ AUX)
    Blend: AUG-CC-PVTZ-JKFIT + DEF2-UNIVERSAL-JKFIT

    Orbital Energies [Eh]
    ---------------------

    Doubly Occupied:

       1A     -2.907846     2A     -2.907845

  @DF-RHF Final Energy:   -14.35729974415598

   => Energetics <=

    Nuclear Repulsion Energy =              1.0394021927359183
    One-Electron Energy =                 -19.1620225483356030
    Two-Electron Energy =                   3.7653206114437037
    Total Energy =                        -14.3572997441559824
 Dipole X            :        -17.3176155           25.9764701            8.6588546
 Dipole Y            :          0.0000000            0.0000000            0.0000000
 Dipole Z            :         -0.0000000            0.0000000           -0.0000000
 Magnitude           :                                                    8.6588546

    SAPT Results
  --------------------------------------------------------------------------------------------------------
    Electrostatics                -32.62321732 [mEh]     -20.47137793 [kcal/mol]     -85.65224526 [kJ/mol]
      Elst10,r                    -34.28472397 [mEh]     -21.51398909 [kcal/mol]     -90.01453037 [kJ/mol]
      Elst12,r                      1.66150665 [mEh]       1.04261116 [kcal/mol]       4.36228511 [kJ/mol]

    Exchange                        0.20115757 [mEh]       0.12622828 [kcal/mol]       0.52813913 [kJ/mol]
      Exch10                        0.15195634 [mEh]       0.09535404 [kcal/mol]       0.39896132 [kJ/mol]
      Exch10(S^2)                   0.15195311 [mEh]       0.09535201 [kcal/mol]       0.39895283 [kJ/mol]
      Exch11(S^2)                   0.00042369 [mEh]       0.00026587 [kcal/mol]       0.00111239 [kJ/mol]
      Exch12(S^2)                   0.04877754 [mEh]       0.03060837 [kcal/mol]       0.12806543 [kJ/mol]

    Induction                      -7.30833198 [mEh]      -4.58604755 [kcal/mol]     -19.18802296 [kJ/mol]
      Ind20,r                      -6.49663339 [mEh]      -4.07669900 [kcal/mol]     -17.05690862 [kJ/mol]
      Ind22                        -0.73460464 [mEh]      -0.46097137 [kcal/mol]      -1.92870421 [kJ/mol]
      Exch-Ind20,r                  0.17432090 [mEh]       0.10938801 [kcal/mol]       0.45767945 [kJ/mol]
      Exch-Ind22                    0.01971128 [mEh]       0.01236901 [kcal/mol]       0.05175195 [kJ/mol]
      delta HF,r (2)               -0.27112612 [mEh]      -0.17013421 [kcal/mol]      -0.71184153 [kJ/mol]

    Dispersion                     -0.05237878 [mEh]      -0.03286818 [kcal/mol]      -0.13752048 [kJ/mol]
      Disp20                       -0.04535186 [mEh]      -0.02845872 [kcal/mol]      -0.11907129 [kJ/mol]
      Disp21                       -0.00293680 [mEh]      -0.00184287 [kcal/mol]      -0.00771057 [kJ/mol]
      Disp22 (SDQ)                 -0.00185620 [mEh]      -0.00116478 [kcal/mol]      -0.00487346 [kJ/mol]
      Disp22 (T)                   -0.00321978 [mEh]      -0.00202044 [kcal/mol]      -0.00845354 [kJ/mol]
      Est. Disp22 (T)              -0.00375624 [mEh]      -0.00235708 [kcal/mol]      -0.00986201 [kJ/mol]
      Exch-Disp20                   0.00152232 [mEh]       0.00095527 [kcal/mol]       0.00399685 [kJ/mol]

  Total HF                        -40.72620624 [mEh]     -25.55608025 [kcal/mol]    -106.92663975 [kJ/mol]
  Total SAPT0                     -40.77003578 [mEh]     -25.58358370 [kcal/mol]    -107.04171419 [kJ/mol]
  Total SAPT2                     -39.77422126 [mEh]     -24.95870065 [kcal/mol]    -104.42720353 [kJ/mol]
  Total SAPT2+                    -39.78277050 [mEh]     -24.96406538 [kcal/mol]    -104.44964957 [kJ/mol]

  Special recipe for scaled SAPT0 (see Manual):
    Electrostatics sSAPT0         -34.28472397 [mEh]     -21.51398909 [kcal/mol]     -90.01453037 [kJ/mol]
    Exchange sSAPT0                 0.15195634 [mEh]       0.09535404 [kcal/mol]       0.39896132 [kJ/mol]
    Induction sSAPT0               -6.59342749 [mEh]      -4.13743821 [kcal/mol]     -17.31104148 [kJ/mol]
    Dispersion sSAPT0              -0.04382944 [mEh]      -0.02750339 [kcal/mol]      -0.11507418 [kJ/mol]
  Total sSAPT0                    -40.77002455 [mEh]     -25.58357665 [kcal/mol]    -107.04168471 [kJ/mol]
  --------------------------------------------------------------------------------------------------------

*** Psi4 exiting successfully. Buy a developer a beer!
