                               Psi4 1.9 release

  ==> Input File <==

--------------------------------------------------------------------------
MEMORY 60 GB

molecule dimer {
0 1
O      0.000000     0.000000     0.000000
H     -0.588538     0.000000     0.756918
H     -0.588538     0.000000    -0.756918
--
2 1
Li     1.527351     1.527351     0.000000
Li     1.527351    -1.527351     0.000000

units ang
no_reorient
no_com
symmetry c1
}

set {
basis        aug-cc-pVTZ
scf_type     df
}

energy("sapt2+")
--------------------------------------------------------------------------

  //              Dimer HF             //
    Molecular point group: c1
  Charge       = 2
  Multiplicity = 1
  Basis Set: AUG-CC-PVTZ
    Blend: AUG-CC-PVTZ
  Basis Set: (AUG-CC-PVTZ AUX)
    Blend: AUG-CC-PVTZ-JKFIT + DEF2-UNIVERSAL-JKFIT
  @DF-RHF Final Energy:   -90.45382907863147
    Total Energy =                        -90.4538290786314718
 Dipole X            :        -10.6991452           15.0932993            4.3941540
 Dipole Y            :          0.0000000            0.0000000            0.0000000
 Dipole Z            :         -0.0000000            0.0000000           -0.0000000
 Magnitude           :                                                    4.3941540
  //            Monomer A HF           //
    Molecular point group: c1
  Multiplicity = 1
  Basis Set: AUG-CC-PVTZ
    Blend: AUG-CC-PVTZ
  Basis Set: (AUG-CC-PVTZ AUX)
    Blend: AUG-CC-PVTZ-JKFIT + DEF2-UNIVERSAL-JKFIT
  @DF-RHF Final Energy:   -76.06063180096584
    Total Energy =                        -76.0606318009658366
  //            Monomer B HF           //
    Molecular point group: c1

    Geometry (in Angstrom), charge = 2, multiplicity = 1:

       Center              X                  Y                   Z               Mass
    ------------   -----------------  -----------------  -----------------  -----------------
      Gh(O)           0.000000000000     0.000000000000     0.000000000000    15.994914619570
      Gh(H)          -0.588538000000     0.000000000000     0.756918000000     1.007825032230
      Gh(H)          -0.588538000000     0.000000000000    -0.756918000000     1.007825032230
         LI           1.527351000000     1.527351000000     0.000000000000     7.016003436600
         LI           1.527351000000    -1.527351000000     0.000000000000     7.016003436600

  Charge       = 2
  Multiplicity = 1
  Basis Set: AUG-CC-PVTZ
    Blend: AUG-CC-PVTZ
  Basis Set: (AUG-CC-PVTZ AUX)
    Blend: AUG-CC-PVTZ-JKFIT + DEF2-UNIVERSAL-JKFIT

    Orbital Energies [Eh]
    ---------------------

    Doubly Occupied:

       1A     -2.965571     2A     -2.965498

  @DF-RHF Final Energy:   -14.29967443587013

   => Energetics <=

    Nuclear Repulsion Energy =              1.5591029488408363
    One-Electron Energy =                 -19.8554158270491250
    Two-Electron Energy =                   3.9966384423381620
    Total Energy =                        -14.2996744358701289
 Dipole X            :        -11.5443565           17.3176505            5.7732940
 Dipole Y            :         -0.0000000            0.0000000           -0.0000000
 Dipole Z            :         -0.0000000            0.0000000           -0.0000000
 Magnitude           :                                                    5.7732940

    SAPT Results
  --------------------------------------------------------------------------------------------------------
    Electrostatics                -74.58590392 [mEh]     -46.80336132 [kcal/mol]    -195.82526377 [kJ/mol]
      Elst10,r                    -78.40577022 [mEh]     -49.20036361 [kcal/mol]    -205.85432136 [kJ/mol]
      Elst12,r                      3.81986630 [mEh]       2.39700229 [kcal/mol]      10.02905760 [kJ/mol]

    Exchange                       13.24291280 [mEh]       8.31005324 [kcal/mol]      34.76926276 [kJ/mol]
      Exch10                       11.74936255 [mEh]       7.37283631 [kcal/mol]      30.84794712 [kJ/mol]
      Exch10(S^2)                  11.73132516 [mEh]       7.36151768 [kcal/mol]      30.80058997 [kJ/mol]
      Exch11(S^2)                   0.03278682 [mEh]       0.02057404 [kcal/mol]       0.08608179 [kJ/mol]
      Exch12(S^2)                   1.46076343 [mEh]       0.91664289 [kcal/mol]       3.83523385 [kJ/mol]

    Induction                     -29.72495688 [mEh]     -18.65269205 [kcal/mol]     -78.04286353 [kJ/mol]
      Ind20,r                     -36.34251943 [mEh]     -22.80527524 [kcal/mol]     -95.41727161 [kJ/mol]
      Ind22                        -3.88145636 [mEh]      -2.43565064 [kcal/mol]     -10.19076226 [kJ/mol]
      Exch-Ind20,r                  9.57784419 [mEh]       6.01018797 [kcal/mol]      25.14662646 [kJ/mol]
      Exch-Ind22                    1.02293360 [mEh]       0.64190053 [kcal/mol]       2.68571180 [kJ/mol]
      delta HF,r (2)               -0.10175889 [mEh]      -0.06385466 [kcal/mol]      -0.26716792 [kJ/mol]

    Dispersion                     -0.78557982 [mEh]      -0.49295878 [kcal/mol]      -2.06253953 [kJ/mol]
      Disp20                       -0.73564877 [mEh]      -0.46162657 [kcal/mol]      -1.93144559 [kJ/mol]
      Disp21                       -0.05085767 [mEh]      -0.03191367 [kcal/mol]      -0.13352679 [kJ/mol]
      Disp22 (SDQ)                 -0.01899940 [mEh]      -0.01192231 [kcal/mol]      -0.04988293 [kJ/mol]
      Disp22 (T)                   -0.04161796 [mEh]      -0.02611567 [kcal/mol]      -0.10926795 [kJ/mol]
      Est. Disp22 (T)              -0.05327022 [mEh]      -0.03342757 [kcal/mol]      -0.13986095 [kJ/mol]
      Exch-Disp20                   0.07319625 [mEh]       0.04593134 [kcal/mol]       0.19217673 [kJ/mol]

  Total HF                        -93.52284180 [mEh]     -58.68646924 [kcal/mol]    -245.54418731 [kJ/mol]
  Total SAPT0                     -94.18529432 [mEh]     -59.10216448 [kcal/mol]    -247.28345617 [kJ/mol]
  Total SAPT2                     -91.73040052 [mEh]     -57.56169536 [kcal/mol]    -240.83813339 [kJ/mol]
  Total SAPT2+                    -91.85352782 [mEh]     -57.63895891 [kcal/mol]    -241.16140406 [kJ/mol]

  Special recipe for scaled SAPT0 (see Manual):
    Electrostatics sSAPT0         -78.40577022 [mEh]     -49.20036361 [kcal/mol]    -205.85432136 [kJ/mol]
    Exchange sSAPT0                11.74936255 [mEh]       7.37283631 [kcal/mol]      30.84794712 [kJ/mol]
    Induction sSAPT0              -26.82218719 [mEh]     -16.83117657 [kcal/mol]     -70.42164278 [kJ/mol]
    Dispersion sSAPT0              -0.66211438 [mEh]      -0.41548304 [kcal/mol]      -1.73838106 [kJ/mol]
  Total sSAPT0                    -94.14070925 [mEh]     -59.07418692 [kcal/mol]    -247.16639808 [kJ/mol]
  --------------------------------------------------------------------------------------------------------

*** Psi4 exiting successfully. Buy a developer a beer!
