                               Psi4 1.9 release

  ==> Input File <==

--------------------------------------------------------------------------
MEMORY 60 GB

molecule dimer {
0 1
O      0.000000     0.000000     0.000000
H     -0.588538     0.000000     0.756918
H     -0.588538     0.000000    -0.756918
--
2 1
Na     2.566798     2.566798     0.000000
Na     2.566798    -2.566798     0.000000

units ang
no_reorient
no_com
symmetry c1
}

set {
basis        aug-cc-pVTZ
scf_type     df
}

energy("sapt2+")
--------------------------------------------------------------------------

  //              Dimer HF             //
    Molecular point group: c1
  Charge       = 2
  Multiplicity = 1
  Basis Set: AUG-CC-PVTZ
    Blend: AUG-CC-PVTZ
  Basis Set: (AUG-CC-PVTZ AUX)
    Blend: AUG-CC-PVTZ-JKFIT + DEF2-UNIVERSAL-JKFIT
  @DF-RHF Final Energy:  -399.34060535803479
    Total Energy =                       -399.3406053580347930
 Dipole X            :        -95.8315665          104.4876440            8.6560775
 Dipole Y            :         -0.0000000            0.0000000           -0.0000000
 Dipole Z            :          0.0000000            0.0000000            0.0000000
 Magnitude           :                                                    8.6560775
  //            Monomer A HF           //
    Molecular point group: c1
  Multiplicity = 1
  Basis Set: AUG-CC-PVTZ
    Blend: AUG-CC-PVTZ
  Basis Set: (AUG-CC-PVTZ AUX)
    Blend: AUG-CC-PVTZ-JKFIT + DEF2-UNIVERSAL-JKFIT
  @DF-RHF Final Energy:   -76.06050573632311
    Total Energy =                        -76.0605057363231083
  //            Monomer B HF           //
    Molecular point group: c1

    Geometry (in Angstrom), charge = 2, multiplicity = 1:

       Center              X                  Y                   Z               Mass
    ------------   -----------------  -----------------  -----------------  -----------------
      Gh(O)           0.000000000000     0.000000000000     0.000000000000    15.994914619570
      Gh(H)          -0.588538000000     0.000000000000     0.756918000000     1.007825032230
      Gh(H)          -0.588538000000     0.000000000000    -0.756918000000     1.007825032230
         NA           2.566798000000     2.566798000000     0.000000000000    22.989769282000
         NA           2.566798000000    -2.566798000000     0.000000000000    22.989769282000

  Charge       = 2
  Multiplicity = 1
  Basis Set: AUG-CC-PVTZ
    Blend: AUG-CC-PVTZ
  Basis Set: (AUG-CC-PVTZ AUX)
    Blend: AUG-CC-PVTZ-JKFIT + DEF2-UNIVERSAL-JKFIT

    Orbital Energies [Eh]
    ---------------------

    Doubly Occupied:

       1A    -40.866574     2A    -40.866574     3A     -3.178304
       4A     -3.178304     5A     -1.901765     6A     -1.901764
       7A     -1.901304     8A     -1.901303     9A     -1.901268
      10A     -1.901268

  @DF-RHF Final Energy:  -323.24902388122030

   => Energetics <=

    Nuclear Repulsion Energy =             12.4728246030794008
    One-Electron Energy =                -472.4468437831946517
    Two-Electron Energy =                 136.7249952988949815
    Total Energy =                       -323.2490238812202961
 Dipole X            :        -97.0113010          106.7119953            9.7006943
 Dipole Y            :          0.0000000            0.0000000            0.0000000
 Dipole Z            :          0.0000000            0.0000000            0.0000000
 Magnitude           :                                                    9.7006943

    SAPT Results
  --------------------------------------------------------------------------------------------------------
    Electrostatics                -25.78646861 [mEh]     -16.18125335 [kcal/mol]     -67.70236400 [kJ/mol]
      Elst10,r                    -27.11802644 [mEh]     -17.01681850 [kcal/mol]     -71.19836861 [kJ/mol]
      Elst12,r                      1.33155783 [mEh]       0.83556516 [kcal/mol]       3.49600461 [kJ/mol]

    Exchange                        0.14245070 [mEh]       0.08938916 [kcal/mol]       0.37400426 [kJ/mol]
      Exch10                        0.10559998 [mEh]       0.06626499 [kcal/mol]       0.27725272 [kJ/mol]
      Exch10(S^2)                   0.10559797 [mEh]       0.06626373 [kcal/mol]       0.27724743 [kJ/mol]
      Exch11(S^2)                  -0.00012152 [mEh]      -0.00007626 [kcal/mol]      -0.00031905 [kJ/mol]
      Exch12(S^2)                   0.03697224 [mEh]       0.02320043 [kcal/mol]       0.09707060 [kJ/mol]

    Induction                      -4.52865066 [mEh]      -2.84177119 [kcal/mol]     -11.88997067 [kJ/mol]
      Ind20,r                      -4.11778581 [mEh]      -2.58394961 [kcal/mol]     -10.81124516 [kJ/mol]
      Ind22                        -0.48111191 [mEh]      -0.30190228 [kcal/mol]      -1.26315915 [kJ/mol]
      Exch-Ind20,r                  0.13501901 [mEh]       0.08472571 [kcal/mol]       0.35449235 [kJ/mol]
      Exch-Ind22                    0.01577529 [mEh]       0.00989914 [kcal/mol]       0.04141801 [kJ/mol]
      delta HF,r (2)               -0.08054723 [mEh]      -0.05054415 [kcal/mol]      -0.21147672 [kJ/mol]

    Dispersion                     -0.07952804 [mEh]      -0.04990460 [kcal/mol]      -0.20880085 [kJ/mol]
      Disp20                       -0.06475540 [mEh]      -0.04063463 [kcal/mol]      -0.17001529 [kJ/mol]
      Disp21                       -0.00498141 [mEh]      -0.00312588 [kcal/mol]      -0.01307869 [kJ/mol]
      Disp22 (SDQ)                 -0.00466543 [mEh]      -0.00292760 [kcal/mol]      -0.01224909 [kJ/mol]
      Disp22 (T)                   -0.00577315 [mEh]      -0.00362271 [kcal/mol]      -0.01515740 [kJ/mol]
      Est. Disp22 (T)              -0.00659151 [mEh]      -0.00413624 [kcal/mol]      -0.01730602 [kJ/mol]
      Exch-Disp20                   0.00146571 [mEh]       0.00091975 [kcal/mol]       0.00384823 [kJ/mol]

  Total HF                        -31.07574049 [mEh]     -19.50032156 [kcal/mol]     -81.58934542 [kJ/mol]
  Total SAPT0                     -31.13903018 [mEh]     -19.54003644 [kcal/mol]     -81.75551248 [kJ/mol]
  Total SAPT2                     -30.23595826 [mEh]     -18.97335025 [kcal/mol]     -79.38449746 [kJ/mol]
  Total SAPT2+                    -30.25219661 [mEh]     -18.98353997 [kcal/mol]     -79.42713125 [kJ/mol]

  Special recipe for scaled SAPT0 (see Manual):
    Electrostatics sSAPT0         -27.11802644 [mEh]     -17.01681850 [kcal/mol]     -71.19836861 [kJ/mol]
    Exchange sSAPT0                 0.10559998 [mEh]       0.06626499 [kcal/mol]       0.27725272 [kJ/mol]
    Induction sSAPT0               -4.06330631 [mEh]      -2.54976320 [kcal/mol]     -10.66820924 [kJ/mol]
    Dispersion sSAPT0              -0.06328961 [mEh]      -0.03971483 [kcal/mol]      -0.16616684 [kJ/mol]
  Total sSAPT0                    -31.13902237 [mEh]     -19.54003154 [kcal/mol]     -81.75549197 [kJ/mol]
  --------------------------------------------------------------------------------------------------------

*** Psi4 exiting successfully. Buy a developer a beer!
