                               Psi4 1.9 release

  ==> Input File <==

--------------------------------------------------------------------------
MEMORY 60 GB

molecule dimer {
0 1
O      0.000000     0.000000     0.000000
H     -0.588538     0.000000     0.756918
H     -0.588538     0.000000    -0.756918
--
2 1
Na     2.053438     2.053438     0.000000
Na     2.053438    -2.053438     0.000000

units ang
no_reorient
no_com
symmetry c1
}

set {
basis        aug-cc-pVTZ
scf_type     df
}

energy("sapt2+")
--------------------------------------------------------------------------

  //              Dimer HF             //
    Molecular point group: c1
  Charge       = 2
  Multiplicity = 1
  Basis Set: AUG-CC-PVTZ
    Blend: AUG-CC-PVTZ
  Basis Set: (AUG-CC-PVTZ AUX)
    Blend: AUG-CC-PVTZ-JKFIT + DEF2-UNIVERSAL-JKFIT
  @DF-RHF Final Energy:  -399.33447116443563
    Total Energy =                       -399.3344711644355698
 Dipole X            :        -76.5538016           83.1452283            6.5914267
 Dipole Y            :         -0.0000000            0.0000000           -0.0000000
 Dipole Z            :         -0.0000000            0.0000000           -0.0000000
 Magnitude           :                                                    6.5914267
  //            Monomer A HF           //
    Molecular point group: c1
  Multiplicity = 1
  Basis Set: AUG-CC-PVTZ
    Blend: AUG-CC-PVTZ
  Basis Set: (AUG-CC-PVTZ AUX)
    Blend: AUG-CC-PVTZ-JKFIT + DEF2-UNIVERSAL-JKFIT
  @DF-RHF Final Energy:   -76.06055553716121
    Total Energy =                        -76.0605555371612070
  //            Monomer B HF           //
    Molecular point group: c1

    Geometry (in Angstrom), charge = 2, multiplicity = 1:

       Center              X                  Y                   Z               Mass
    ------------   -----------------  -----------------  -----------------  -----------------
      Gh(O)           0.000000000000     0.000000000000     0.000000000000    15.994914619570
      Gh(H)          -0.588538000000     0.000000000000     0.756918000000     1.007825032230
      Gh(H)          -0.588538000000     0.000000000000    -0.756918000000     1.007825032230
         NA           2.053438000000     2.053438000000     0.000000000000    22.989769282000
         NA           2.053438000000    -2.053438000000     0.000000000000    22.989769282000

  Charge       = 2
  Multiplicity = 1
  Basis Set: AUG-CC-PVTZ
    Blend: AUG-CC-PVTZ
  Basis Set: (AUG-CC-PVTZ AUX)
    Blend: AUG-CC-PVTZ-JKFIT + DEF2-UNIVERSAL-JKFIT

    Orbital Energies [Eh]
    ---------------------

    Doubly Occupied:

       1A    -40.892243     2A    -40.892243     3A     -3.204011
       4A     -3.204010     5A     -1.927755     6A     -1.927692
       7A     -1.926850     8A     -1.926848     9A     -1.926818
      10A     -1.926813

  @DF-RHF Final Energy:  -323.22333493498240

   => Energetics <=

    Nuclear Repulsion Energy =             15.5910337909082255
    One-Electron Energy =                -478.1181712973112781
    Two-Electron Energy =                 139.3038025714207038
    Total Energy =                       -323.2233349349823470
 Dipole X            :        -77.6090307           85.3695796            7.7605488
 Dipole Y            :         -0.0000000            0.0000000           -0.0000000
 Dipole Z            :          0.0000000            0.0000000            0.0000000
 Magnitude           :                                                    7.7605488

    SAPT Results
  --------------------------------------------------------------------------------------------------------
    Electrostatics                -41.27955736 [mEh]     -25.90331332 [kcal/mol]    -108.37946291 [kJ/mol]
      Elst10,r                    -43.20811617 [mEh]     -27.11350224 [kcal/mol]    -113.44289338 [kJ/mol]
      Elst12,r                      1.92855881 [mEh]       1.21018893 [kcal/mol]       5.06343047 [kJ/mol]

    Exchange                        2.27035158 [mEh]       1.42466713 [kcal/mol]       5.96080726 [kJ/mol]
      Exch10                        1.86060603 [mEh]       1.16754791 [kcal/mol]       4.88502047 [kJ/mol]
      Exch10(S^2)                   1.86004911 [mEh]       1.16719844 [kcal/mol]       4.88355828 [kJ/mol]
      Exch11(S^2)                  -0.00285068 [mEh]      -0.00178883 [kcal/mol]      -0.00748447 [kJ/mol]
      Exch12(S^2)                   0.41259623 [mEh]       0.25890805 [kcal/mol]       1.08327126 [kJ/mol]

    Induction                     -10.47636930 [mEh]      -6.57402099 [kcal/mol]     -27.50570382 [kJ/mol]
      Ind20,r                     -11.62947205 [mEh]      -7.29760388 [kcal/mol]     -30.53317465 [kJ/mol]
      Ind22                        -1.52863967 [mEh]      -0.95923587 [kcal/mol]      -4.01344290 [kJ/mol]
      Exch-Ind20,r                  2.17164460 [mEh]       1.36272756 [kcal/mol]       5.70165211 [kJ/mol]
      Exch-Ind22                    0.28545252 [mEh]       0.17912416 [kcal/mol]       0.74945548 [kJ/mol]
      delta HF,r (2)                0.22464529 [mEh]       0.14096705 [kcal/mol]       0.58980613 [kJ/mol]

    Dispersion                     -0.33763353 [mEh]      -0.21186824 [kcal/mol]      -0.88645671 [kJ/mol]
      Disp20                       -0.28925341 [mEh]      -0.18150926 [kcal/mol]      -0.75943472 [kJ/mol]
      Disp21                       -0.02301157 [mEh]      -0.01443998 [kcal/mol]      -0.06041686 [kJ/mol]
      Disp22 (SDQ)                 -0.01919217 [mEh]      -0.01204327 [kcal/mol]      -0.05038903 [kJ/mol]
      Disp22 (T)                   -0.02404172 [mEh]      -0.01508641 [kcal/mol]      -0.06312152 [kJ/mol]
      Est. Disp22 (T)              -0.02806886 [mEh]      -0.01761347 [kcal/mol]      -0.07369477 [kJ/mol]
      Exch-Disp20                   0.02189247 [mEh]       0.01373773 [kcal/mol]       0.05747867 [kJ/mol]

  Total HF                        -50.58069229 [mEh]     -31.73986360 [kcal/mol]    -132.79958932 [kJ/mol]
  Total SAPT0                     -50.84805323 [mEh]     -31.90763513 [kcal/mol]    -133.50154537 [kJ/mol]
  Total SAPT2                     -49.75293602 [mEh]     -31.22043870 [kcal/mol]    -130.62631552 [kJ/mol]
  Total SAPT2+                    -49.82320861 [mEh]     -31.26453542 [kcal/mol]    -130.81081618 [kJ/mol]

  Special recipe for scaled SAPT0 (see Manual):
    Electrostatics sSAPT0         -43.20811617 [mEh]     -27.11350224 [kcal/mol]    -113.44289338 [kJ/mol]
    Exchange sSAPT0                 1.86060603 [mEh]       1.16754791 [kcal/mol]       4.88502047 [kJ/mol]
    Induction sSAPT0               -9.23123093 [mEh]      -5.79268486 [kcal/mol]     -24.23659346 [kJ/mol]
    Dispersion sSAPT0              -0.26734127 [mEh]      -0.16775918 [kcal/mol]      -0.70190441 [kJ/mol]
  Total sSAPT0                    -50.84608234 [mEh]     -31.90639837 [kcal/mol]    -133.49637078 [kJ/mol]
  --------------------------------------------------------------------------------------------------------

*** Psi4 exiting successfully. Buy a developer a beer!
