                               Psi4 1.9 release

  ==> Input File <==

--------------------------------------------------------------------------
MEMORY 60 GB

molecule dimer {
0 1
O      0.000000     0.000000     0.000000
H     -0.588538     0.000000     0.756918
H     -0.588538     0.000000    -0.756918
--
2 1
Na     1.711198     1.711198     0.000000
Na     1.711198    -1.711198     0.000000

units ang
no_reorient
no_com
symmetry c1
}

set {
basis        aug-cc-pVTZ
scf_type     df
}

energy("sapt2+")
--------------------------------------------------------------------------

  //              Dimer HF             //
    Molecular point group: c1
  Charge       = 2
  Multiplicity = 1
  Basis Set: AUG-CC-PVTZ
    Blend: AUG-CC-PVTZ
  Basis Set: (AUG-CC-PVTZ AUX)
    Blend: AUG-CC-PVTZ-JKFIT + DEF2-UNIVERSAL-JKFIT
  @DF-RHF Final Energy:  -399.32563220173978
    Total Energy =                       -399.3256322017397792
 Dipole X            :        -63.7034188           68.9169512            5.2135324
 Dipole Y            :          0.0000000            0.0000000            0.0000000
 Dipole Z            :          0.0000000            0.0000000            0.0000000
 Magnitude           :                                                    5.2135324
  //            Monomer A HF           //
    Molecular point group: c1
  Multiplicity = 1
  Basis Set: AUG-CC-PVTZ
    Blend: AUG-CC-PVTZ
  Basis Set: (AUG-CC-PVTZ AUX)
    Blend: AUG-CC-PVTZ-JKFIT + DEF2-UNIVERSAL-JKFIT
  @DF-RHF Final Energy:   -76.06062528300106
    Total Energy =                        -76.0606252830010590
  //            Monomer B HF           //
    Molecular point group: c1

    Geometry (in Angstrom), charge = 2, multiplicity = 1:

       Center              X                  Y                   Z               Mass
    ------------   -----------------  -----------------  -----------------  -----------------
      Gh(O)           0.000000000000     0.000000000000     0.000000000000    15.994914619570
      Gh(H)          -0.588538000000     0.000000000000     0.756918000000     1.007825032230
      Gh(H)          -0.588538000000     0.000000000000    -0.756918000000     1.007825032230
         NA           1.711198000000     1.711198000000     0.000000000000    22.989769282000
         NA           1.711198000000    -1.711198000000     0.000000000000    22.989769282000

  Charge       = 2
  Multiplicity = 1
  Basis Set: AUG-CC-PVTZ
    Blend: AUG-CC-PVTZ
  Basis Set: (AUG-CC-PVTZ AUX)
    Blend: AUG-CC-PVTZ-JKFIT + DEF2-UNIVERSAL-JKFIT

    Orbital Energies [Eh]
    ---------------------

    Doubly Occupied:

       1A    -40.917772     2A    -40.917772     3A     -3.229642
       4A     -3.229612     5A     -1.953960     6A     -1.953375
       7A     -1.952267     8A     -1.952236     9A     -1.952223
      10A     -1.952187

  @DF-RHF Final Energy:  -323.19772978806145

   => Energetics <=

    Nuclear Repulsion Energy =             18.7092441935620535
    One-Electron Energy =                -483.7918582653516637
    Two-Electron Energy =                 141.8848842837281552
    Total Energy =                       -323.1977297880614515
 Dipole X            :        -64.6739521           71.1413025            6.4673504
 Dipole Y            :          0.0000000            0.0000000            0.0000000
 Dipole Z            :          0.0000000            0.0000000            0.0000000
 Magnitude           :                                                    6.4673504

    SAPT Results
  --------------------------------------------------------------------------------------------------------
    Electrostatics                -62.52139171 [mEh]     -39.23276561 [kcal/mol]    -164.14989132 [kJ/mol]
      Elst10,r                    -64.90857658 [mEh]     -40.73074673 [kcal/mol]    -170.41744432 [kJ/mol]
      Elst12,r                      2.38718486 [mEh]       1.49798112 [kcal/mol]       6.26755300 [kJ/mol]

    Exchange                       15.18204161 [mEh]       9.52687494 [kcal/mol]      39.86044474 [kJ/mol]
      Exch10                       13.36533919 [mEh]       8.38687696 [kcal/mol]      35.09069322 [kJ/mol]
      Exch10(S^2)                  13.33856903 [mEh]       8.37007843 [kcal/mol]      35.02040815 [kJ/mol]
      Exch11(S^2)                  -0.04626215 [mEh]      -0.02902993 [kcal/mol]      -0.12146125 [kJ/mol]
      Exch12(S^2)                   1.86296456 [mEh]       1.16902791 [kcal/mol]       4.89121277 [kJ/mol]

    Induction                     -18.11061531 [mEh]     -11.36458268 [kcal/mol]     -47.54941395 [kJ/mol]
      Ind20,r                     -31.69552247 [mEh]     -19.88924063 [kcal/mol]     -83.21658278 [kJ/mol]
      Ind22                        -4.28360141 [mEh]      -2.68800047 [kcal/mol]     -11.24659395 [kJ/mol]
      Exch-Ind20,r                 14.10951508 [mEh]       8.85385438 [kcal/mol]      37.04452674 [kJ/mol]
      Exch-Ind22                    1.90687939 [mEh]       1.19658489 [kcal/mol]       5.00651116 [kJ/mol]
      delta HF,r (2)                1.85211409 [mEh]       1.16221914 [kcal/mol]       4.86272488 [kJ/mol]

    Dispersion                     -0.98721988 [mEh]      -0.61948983 [kcal/mol]      -2.59194545 [kJ/mol]
      Disp20                       -0.93251438 [mEh]      -0.58516161 [kcal/mol]      -2.44831617 [kJ/mol]
      Disp21                       -0.05558985 [mEh]      -0.03488316 [kcal/mol]      -0.14595112 [kJ/mol]
      Disp22 (SDQ)                 -0.05715416 [mEh]      -0.03586477 [kcal/mol]      -0.15005821 [kJ/mol]
      Disp22 (T)                   -0.07028174 [mEh]      -0.04410246 [kcal/mol]      -0.18452469 [kJ/mol]
      Est. Disp22 (T)              -0.08680185 [mEh]      -0.05446898 [kcal/mol]      -0.22789823 [kJ/mol]
      Exch-Disp20                   0.14484035 [mEh]       0.09088869 [kcal/mol]       0.38027828 [kJ/mol]

  Total HF                        -67.27713068 [mEh]     -42.21703687 [kcal/mol]    -176.63608226 [kJ/mol]
  Total SAPT0                     -68.06480471 [mEh]     -42.71130979 [kcal/mol]    -178.70412014 [kJ/mol]
  Total SAPT2                     -66.23763945 [mEh]     -41.56474627 [kcal/mol]    -173.90689841 [kJ/mol]
  Total SAPT2+                    -66.43718530 [mEh]     -41.68996319 [kcal/mol]    -174.43080598 [kJ/mol]

  Special recipe for scaled SAPT0 (see Manual):
    Electrostatics sSAPT0         -64.90857658 [mEh]     -40.73074673 [kcal/mol]    -170.41744432 [kJ/mol]
    Exchange sSAPT0                13.36533919 [mEh]       8.38687696 [kcal/mol]      35.09069322 [kJ/mol]
    Induction sSAPT0              -15.64877037 [mEh]      -9.81975166 [kcal/mol]     -41.08584095 [kJ/mol]
    Dispersion sSAPT0              -0.78680021 [mEh]      -0.49372458 [kcal/mol]      -2.06574366 [kJ/mol]
  Total sSAPT0                    -67.97880796 [mEh]     -42.65734601 [kcal/mol]    -178.47833571 [kJ/mol]
  --------------------------------------------------------------------------------------------------------

*** Psi4 exiting successfully. Buy a developer a beer!
