                               Psi4 1.9 release

  ==> Input File <==

--------------------------------------------------------------------------
MEMORY 60 GB

molecule dimer {
0 1
O      0.000000     0.000000     0.000000
H     -0.588538     0.000000     0.756918
H     -0.588538     0.000000    -0.756918
--
2 1
Na     3.422397     3.422397     0.000000
Na     3.422397    -3.422397     0.000000

units ang
no_reorient
no_com
symmetry c1
}

set {
basis        aug-cc-pVTZ
scf_type     df
}

energy("sapt2+")
--------------------------------------------------------------------------

  //              Dimer HF             //
    Molecular point group: c1
  Charge       = 2
  Multiplicity = 1
  Basis Set: AUG-CC-PVTZ
    Blend: AUG-CC-PVTZ
  Basis Set: (AUG-CC-PVTZ AUX)
    Blend: AUG-CC-PVTZ-JKFIT + DEF2-UNIVERSAL-JKFIT
  @DF-RHF Final Energy:  -399.35141038632344
    Total Energy =                       -399.3514103863234368
 Dipole X            :       -128.0514377          140.0582952           12.0068576
 Dipole Y            :         -0.0000000            0.0000000           -0.0000000
 Dipole Z            :         -0.0000000            0.0000000           -0.0000000
 Magnitude           :                                                   12.0068576
  //            Monomer A HF           //
    Molecular point group: c1
  Multiplicity = 1
  Basis Set: AUG-CC-PVTZ
    Blend: AUG-CC-PVTZ
  Basis Set: (AUG-CC-PVTZ AUX)
    Blend: AUG-CC-PVTZ-JKFIT + DEF2-UNIVERSAL-JKFIT
  @DF-RHF Final Energy:   -76.06048997331114
    Total Energy =                        -76.0604899733111495
  //            Monomer B HF           //
    Molecular point group: c1

    Geometry (in Angstrom), charge = 2, multiplicity = 1:

       Center              X                  Y                   Z               Mass
    ------------   -----------------  -----------------  -----------------  -----------------
      Gh(O)           0.000000000000     0.000000000000     0.000000000000    15.994914619570
      Gh(H)          -0.588538000000     0.000000000000     0.756918000000     1.007825032230
      Gh(H)          -0.588538000000     0.000000000000    -0.756918000000     1.007825032230
         NA           3.422397000000     3.422397000000     0.000000000000    22.989769282000
         NA           3.422397000000    -3.422397000000     0.000000000000    22.989769282000

  Charge       = 2
  Multiplicity = 1
  Basis Set: AUG-CC-PVTZ
    Blend: AUG-CC-PVTZ
  Basis Set: (AUG-CC-PVTZ AUX)
    Blend: AUG-CC-PVTZ-JKFIT + DEF2-UNIVERSAL-JKFIT

    Orbital Energies [Eh]
    ---------------------

    Doubly Occupied:

       1A    -40.841040     2A    -40.841040     3A     -3.152640
       4A     -3.152640     5A     -1.875925     6A     -1.875925
       7A     -1.875717     8A     -1.875717     9A     -1.875710
      10A     -1.875710

  @DF-RHF Final Energy:  -323.27475502419225

   => Energetics <=

    Nuclear Repulsion Energy =              9.3546193634271528
    One-Electron Energy =                -466.7746216106049815
    Two-Electron Energy =                 134.1452472229856028
    Total Energy =                       -323.2747550241922454
 Dipole X            :       -129.3479931          142.2826465           12.9346534
 Dipole Y            :         -0.0000000            0.0000000           -0.0000000
 Dipole Z            :          0.0000000            0.0000000            0.0000000
 Magnitude           :                                                   12.9346534

    SAPT Results
  --------------------------------------------------------------------------------------------------------
    Electrostatics                -14.13579994 [mEh]      -8.87034838 [kcal/mol]     -37.11353763 [kJ/mol]
      Elst10,r                    -14.91754625 [mEh]      -9.36090160 [kcal/mol]     -39.16601229 [kJ/mol]
      Elst12,r                      0.78174631 [mEh]       0.49055322 [kcal/mol]       2.05247467 [kJ/mol]

    Exchange                        0.00149484 [mEh]       0.00093803 [kcal/mol]       0.00392470 [kJ/mol]
      Exch10                        0.00101576 [mEh]       0.00063740 [kcal/mol]       0.00266687 [kJ/mol]
      Exch10(S^2)                   0.00101576 [mEh]       0.00063740 [kcal/mol]       0.00266687 [kJ/mol]
      Exch11(S^2)                  -0.00000248 [mEh]      -0.00000156 [kcal/mol]      -0.00000651 [kJ/mol]
      Exch12(S^2)                   0.00048156 [mEh]       0.00030218 [kcal/mol]       0.00126434 [kJ/mol]

    Induction                      -1.38324519 [mEh]      -0.86799946 [kcal/mol]      -3.63170974 [kJ/mol]
      Ind20,r                      -1.23598559 [mEh]      -0.77559267 [kcal/mol]      -3.24507973 [kJ/mol]
      Ind22                        -0.13455730 [mEh]      -0.08443598 [kcal/mol]      -0.35328014 [kJ/mol]
      Exch-Ind20,r                  0.00156555 [mEh]       0.00098240 [kcal/mol]       0.00411034 [kJ/mol]
      Exch-Ind22                    0.00017044 [mEh]       0.00010695 [kcal/mol]       0.00044748 [kJ/mol]
      delta HF,r (2)               -0.01443828 [mEh]      -0.00906016 [kcal/mol]      -0.03790770 [kJ/mol]

    Dispersion                     -0.01167519 [mEh]      -0.00732629 [kcal/mol]      -0.03065320 [kJ/mol]
      Disp20                       -0.00948593 [mEh]      -0.00595251 [kcal/mol]      -0.02490529 [kJ/mol]
      Disp21                       -0.00057331 [mEh]      -0.00035976 [kcal/mol]      -0.00150522 [kJ/mol]
      Disp22 (SDQ)                 -0.00062706 [mEh]      -0.00039348 [kcal/mol]      -0.00164634 [kJ/mol]
      Disp22 (T)                   -0.00094413 [mEh]      -0.00059245 [kcal/mol]      -0.00247881 [kJ/mol]
      Est. Disp22 (T)              -0.00100276 [mEh]      -0.00062924 [kcal/mol]      -0.00263274 [kJ/mol]
      Exch-Disp20                   0.00001386 [mEh]       0.00000870 [kcal/mol]       0.00003639 [kJ/mol]

  Total HF                        -16.16538882 [mEh]     -10.14393463 [kcal/mol]     -42.44222250 [kJ/mol]
  Total SAPT0                     -16.17486089 [mEh]     -10.14987844 [kcal/mol]     -42.46709141 [kJ/mol]
  Total SAPT2                     -15.52702235 [mEh]      -9.74335363 [kcal/mol]     -40.76619157 [kJ/mol]
  Total SAPT2+                    -15.52922547 [mEh]      -9.74473611 [kcal/mol]     -40.77197587 [kJ/mol]

  Special recipe for scaled SAPT0 (see Manual):
    Electrostatics sSAPT0         -14.91754625 [mEh]      -9.36090160 [kcal/mol]     -39.16601229 [kJ/mol]
    Exchange sSAPT0                 0.00101576 [mEh]       0.00063740 [kcal/mol]       0.00266687 [kJ/mol]
    Induction sSAPT0               -1.24885832 [mEh]      -0.78367043 [kcal/mol]      -3.27887708 [kJ/mol]
    Dispersion sSAPT0              -0.00947207 [mEh]      -0.00594381 [kcal/mol]      -0.02486891 [kJ/mol]
  Total sSAPT0                    -16.17486089 [mEh]     -10.14987844 [kcal/mol]     -42.46709141 [kJ/mol]
  --------------------------------------------------------------------------------------------------------

*** Psi4 exiting successfully. Buy a developer a beer!
