                               Psi4 1.9 release

  ==> Input File <==

--------------------------------------------------------------------------
MEMORY 60 GB

molecule dimer {
0 1
O      0.000000     0.000000     0.000000
H     -0.588538     0.000000     0.756918
H     -0.588538     0.000000    -0.756918
--
2 1
K      2.555484     2.555484     0.000000
K      2.555484    -2.555484     0.000000

units ang
no_reorient
no_com
symmetry c1
}

set {
basis        aug-cc-pVTZ
scf_type     df
}

energy("sapt2+")
--------------------------------------------------------------------------

  //              Dimer HF             //
    Molecular point group: c1
  Charge       = 2
  Multiplicity = 1
  Basis Set: AUG-CC-PVTZ
    Blend: AUG-CC-PVTZ
  Basis Set: (AUG-CC-PVTZ AUX)
    Blend: AUG-CC-PVTZ-JKFIT + DEF2-UNIVERSAL-JKFIT
  @DF-RHF Final Energy: -1274.02309690475181
    Total Energy =                      -1274.0230969047518101
 Dipole X            :       -172.6892520          181.2839141            8.5946621
 Dipole Y            :         -0.0000000            0.0000000           -0.0000000
 Dipole Z            :         -0.0000000            0.0000000           -0.0000000
 Magnitude           :                                                    8.5946621
  //            Monomer A HF           //
    Molecular point group: c1
  Multiplicity = 1
  Basis Set: AUG-CC-PVTZ
    Blend: AUG-CC-PVTZ
  Basis Set: (AUG-CC-PVTZ AUX)
    Blend: AUG-CC-PVTZ-JKFIT + DEF2-UNIVERSAL-JKFIT
  @DF-RHF Final Energy:   -76.06050334319815
    Total Energy =                        -76.0605033431981497
  //            Monomer B HF           //
    Molecular point group: c1

    Geometry (in Angstrom), charge = 2, multiplicity = 1:

       Center              X                  Y                   Z               Mass
    ------------   -----------------  -----------------  -----------------  -----------------
      Gh(O)           0.000000000000     0.000000000000     0.000000000000    15.994914619570
      Gh(H)          -0.588538000000     0.000000000000     0.756918000000     1.007825032230
      Gh(H)          -0.588538000000     0.000000000000    -0.756918000000     1.007825032230
         K            2.555484000000     2.555484000000     0.000000000000    38.963706486400
         K            2.555484000000    -2.555484000000     0.000000000000    38.963706486400

  Charge       = 2
  Multiplicity = 1
  Basis Set: AUG-CC-PVTZ
    Blend: AUG-CC-PVTZ
  Basis Set: (AUG-CC-PVTZ AUX)
    Blend: AUG-CC-PVTZ-JKFIT + DEF2-UNIVERSAL-JKFIT

    Orbital Energies [Eh]
    ---------------------

    Doubly Occupied:

       1A   -133.857208     2A   -133.857208     3A    -14.812575
       4A    -14.812575     5A    -11.842681     6A    -11.842681
       7A    -11.842626     8A    -11.842626     9A    -11.842626
      10A    -11.842626    11A     -2.067543    12A     -2.067537
      13A     -1.275149    14A     -1.274944    15A     -1.273644
      16A     -1.273634    17A     -1.273629    18A     -1.273619

  @DF-RHF Final Energy: -1197.93205901580382

   => Energetics <=

    Nuclear Repulsion Energy =             37.3770630244349107
    One-Electron Energy =               -1710.2679820562696023
    Two-Electron Energy =                 474.9588600160309397
    Total Energy =                      -1197.9320590158038158
 Dipole X            :       -173.8501591          183.5082654            9.6581062
 Dipole Y            :          0.0000000            0.0000000            0.0000000
 Dipole Z            :         -0.0000000            0.0000000           -0.0000000
 Magnitude           :                                                    9.6581062

    SAPT Results
  --------------------------------------------------------------------------------------------------------
    Electrostatics                -25.90851311 [mEh]     -16.25783743 [kcal/mol]     -68.02279179 [kJ/mol]
      Elst10,r                    -27.09626426 [mEh]     -17.00316253 [kcal/mol]     -71.14123201 [kJ/mol]
      Elst12,r                      1.18775115 [mEh]       0.74532510 [kcal/mol]       3.11844021 [kJ/mol]

    Exchange                        0.77180858 [mEh]       0.48431720 [kcal/mol]       2.02638315 [kJ/mol]
      Exch10                        0.60752184 [mEh]       0.38122571 [kcal/mol]       1.59504837 [kJ/mol]
      Exch10(S^2)                   0.60742236 [mEh]       0.38116329 [kcal/mol]       1.59478719 [kJ/mol]
      Exch11(S^2)                   0.00828039 [mEh]       0.00519602 [kcal/mol]       0.02174017 [kJ/mol]
      Exch12(S^2)                   0.15600635 [mEh]       0.09789546 [kcal/mol]       0.40959462 [kJ/mol]

    Induction                      -4.57892957 [mEh]      -2.87332168 [kcal/mol]     -12.02197793 [kJ/mol]
      Ind20,r                      -4.46509891 [mEh]      -2.80189187 [kcal/mol]     -11.72311557 [kJ/mol]
      Ind22                        -0.60196407 [mEh]      -0.37773816 [kcal/mol]      -1.58045646 [kJ/mol]
      Exch-Ind20,r                  0.51060814 [mEh]       0.32041144 [kcal/mol]       1.34060148 [kJ/mol]
      Exch-Ind22                    0.06883784 [mEh]       0.04319640 [kcal/mol]       0.18073372 [kJ/mol]
      delta HF,r (2)               -0.09131256 [mEh]      -0.05729950 [kcal/mol]      -0.23974110 [kJ/mol]

    Dispersion                     -0.74725335 [mEh]      -0.46890856 [kcal/mol]      -1.96191340 [kJ/mol]
      Disp20                       -0.76897561 [mEh]      -0.48253948 [kcal/mol]      -2.01894520 [kJ/mol]
      Disp21                        0.09847868 [mEh]       0.06179630 [kcal/mol]       0.25855573 [kJ/mol]
      Disp22 (SDQ)                 -0.01308549 [mEh]      -0.00821127 [kcal/mol]      -0.03435595 [kJ/mol]
      Disp22 (T)                   -0.08172708 [mEh]      -0.05128452 [kcal/mol]      -0.21457442 [kJ/mol]
      Est. Disp22 (T)              -0.08886519 [mEh]      -0.05576375 [kcal/mol]      -0.23331553 [kJ/mol]
      Exch-Disp20                   0.02519427 [mEh]       0.01580964 [kcal/mol]       0.06614755 [kJ/mol]

  Total HF                        -30.53454575 [mEh]     -19.16071674 [kcal/mol]     -80.16843882 [kJ/mol]
  Total SAPT0                     -31.27832709 [mEh]     -19.62744657 [kcal/mol]     -82.12123647 [kJ/mol]
  Total SAPT2                     -30.45941544 [mEh]     -19.11357175 [kcal/mol]     -79.97118421 [kJ/mol]
  Total SAPT2+                    -30.46288744 [mEh]     -19.11575047 [kcal/mol]     -79.98029996 [kJ/mol]

  Special recipe for scaled SAPT0 (see Manual):
    Electrostatics sSAPT0         -27.09626426 [mEh]     -17.00316253 [kcal/mol]     -71.14123201 [kJ/mol]
    Exchange sSAPT0                 0.60752184 [mEh]       0.38122571 [kcal/mol]       1.59504837 [kJ/mol]
    Induction sSAPT0               -4.04555242 [mEh]      -2.53862247 [kcal/mol]     -10.62159643 [kJ/mol]
    Dispersion sSAPT0              -0.74376896 [mEh]      -0.46672207 [kcal/mol]      -1.95276514 [kJ/mol]
  Total sSAPT0                    -31.27806380 [mEh]     -19.62728136 [kcal/mol]     -82.12054520 [kJ/mol]
  --------------------------------------------------------------------------------------------------------

*** Psi4 exiting successfully. Buy a developer a beer!
