                               Psi4 1.9 release

  ==> Input File <==

--------------------------------------------------------------------------
MEMORY 60 GB

molecule dimer {
0 1
O      0.000000     0.000000     0.000000
H     -0.588538     0.000000     0.756918
H     -0.588538     0.000000    -0.756918
--
2 1
K      3.931514     3.931514     0.000000
K      3.931514    -3.931514     0.000000

units ang
no_reorient
no_com
symmetry c1
}

set {
basis        aug-cc-pVTZ
scf_type     df
}

energy("sapt2+")
--------------------------------------------------------------------------

  //              Dimer HF             //
    Molecular point group: c1
  Charge       = 2
  Multiplicity = 1
  Basis Set: AUG-CC-PVTZ
    Blend: AUG-CC-PVTZ
  Basis Set: (AUG-CC-PVTZ AUX)
    Blend: AUG-CC-PVTZ-JKFIT + DEF2-UNIVERSAL-JKFIT
  @DF-RHF Final Energy: -1274.04015573844231
    Total Energy =                      -1274.0401557384423086
 Dipole X            :       -266.1339281          280.0960680           13.9621400
 Dipole Y            :         -0.0000000            0.0000000           -0.0000000
 Dipole Z            :         -0.0000000            0.0000000           -0.0000000
 Magnitude           :                                                   13.9621400
  //            Monomer A HF           //
    Molecular point group: c1
  Multiplicity = 1
  Basis Set: AUG-CC-PVTZ
    Blend: AUG-CC-PVTZ
  Basis Set: (AUG-CC-PVTZ AUX)
    Blend: AUG-CC-PVTZ-JKFIT + DEF2-UNIVERSAL-JKFIT
  @DF-RHF Final Energy:   -76.06048571423958
    Total Energy =                        -76.0604857142395758
  //            Monomer B HF           //
    Molecular point group: c1

    Geometry (in Angstrom), charge = 2, multiplicity = 1:

       Center              X                  Y                   Z               Mass
    ------------   -----------------  -----------------  -----------------  -----------------
      Gh(O)           0.000000000000     0.000000000000     0.000000000000    15.994914619570
      Gh(H)          -0.588538000000     0.000000000000     0.756918000000     1.007825032230
      Gh(H)          -0.588538000000     0.000000000000    -0.756918000000     1.007825032230
         K            3.931514000000     3.931514000000     0.000000000000    38.963706486400
         K            3.931514000000    -3.931514000000     0.000000000000    38.963706486400

  Charge       = 2
  Multiplicity = 1
  Basis Set: AUG-CC-PVTZ
    Blend: AUG-CC-PVTZ
  Basis Set: (AUG-CC-PVTZ AUX)
    Blend: AUG-CC-PVTZ-JKFIT + DEF2-UNIVERSAL-JKFIT

    Orbital Energies [Eh]
    ---------------------

    Doubly Occupied:

       1A   -133.821216     2A   -133.821216     3A    -14.776619
       4A    -14.776619     5A    -11.806691     6A    -11.806691
       7A    -11.806676     8A    -11.806676     9A    -11.806676
      10A    -11.806676    11A     -2.031669    12A     -2.031668
      13A     -1.238500    14A     -1.238500    15A     -1.238096
      16A     -1.238096    17A     -1.238094    18A     -1.238094

  @DF-RHF Final Energy: -1197.96781389067314

   => Energetics <=

    Nuclear Repulsion Energy =             24.2950900151786335
    One-Electron Energy =               -1685.4688643878942003
    Two-Electron Energy =                 463.2059604820423147
    Total Energy =                      -1197.9678138906733693
 Dipole X            :       -267.4614762          282.3204193           14.8589431
 Dipole Y            :          0.0000000            0.0000000            0.0000000
 Dipole Z            :         -0.0000000            0.0000000           -0.0000000
 Magnitude           :                                                   14.8589431

    SAPT Results
  --------------------------------------------------------------------------------------------------------
    Electrostatics                -10.56533102 [mEh]      -6.62984531 [kcal/mol]     -27.73927277 [kJ/mol]
      Elst10,r                    -11.14655243 [mEh]      -6.99456725 [kcal/mol]     -29.26526937 [kJ/mol]
      Elst12,r                      0.58122141 [mEh]       0.36472194 [kcal/mol]       1.52599660 [kJ/mol]

    Exchange                        0.00038595 [mEh]       0.00024218 [kcal/mol]       0.00101330 [kJ/mol]
      Exch10                        0.00038109 [mEh]       0.00023913 [kcal/mol]       0.00100054 [kJ/mol]
      Exch10(S^2)                   0.00038109 [mEh]       0.00023913 [kcal/mol]       0.00100054 [kJ/mol]
      Exch11(S^2)                   0.00000121 [mEh]       0.00000076 [kcal/mol]       0.00000318 [kJ/mol]
      Exch12(S^2)                   0.00000365 [mEh]       0.00000229 [kcal/mol]       0.00000958 [kJ/mol]

    Induction                      -0.78651205 [mEh]      -0.49354376 [kcal/mol]      -2.06498709 [kJ/mol]
      Ind20,r                      -0.70483531 [mEh]      -0.44229083 [kcal/mol]      -1.85054484 [kJ/mol]
      Ind22                        -0.07659574 [mEh]      -0.04806455 [kcal/mol]      -0.20110208 [kJ/mol]
      Exch-Ind20,r                  0.00042215 [mEh]       0.00026491 [kcal/mol]       0.00110837 [kJ/mol]
      Exch-Ind22                    0.00004588 [mEh]       0.00002879 [kcal/mol]       0.00012045 [kJ/mol]
      delta HF,r (2)               -0.00554903 [mEh]      -0.00348207 [kcal/mol]      -0.01456899 [kJ/mol]

    Dispersion                     -0.04627369 [mEh]      -0.02903718 [kcal/mol]      -0.12149155 [kJ/mol]
      Disp20                       -0.04796739 [mEh]      -0.03009999 [kcal/mol]      -0.12593838 [kJ/mol]
      Disp21                        0.00797268 [mEh]       0.00500293 [kcal/mol]       0.02093228 [kJ/mol]
      Disp22 (SDQ)                 -0.00060547 [mEh]      -0.00037994 [kcal/mol]      -0.00158965 [kJ/mol]
      Disp22 (T)                   -0.00556485 [mEh]      -0.00349200 [kcal/mol]      -0.01461052 [kJ/mol]
      Est. Disp22 (T)              -0.00570136 [mEh]      -0.00357765 [kcal/mol]      -0.01496891 [kJ/mol]
      Exch-Disp20                   0.00002785 [mEh]       0.00001747 [kcal/mol]       0.00007311 [kJ/mol]

  Total HF                        -11.85613353 [mEh]      -7.43983611 [kcal/mol]     -31.12827429 [kJ/mol]
  Total SAPT0                     -11.90407308 [mEh]      -7.46991863 [kcal/mol]     -31.25413956 [kJ/mol]
  Total SAPT2                     -11.39939667 [mEh]      -7.15322940 [kcal/mol]     -29.92911182 [kJ/mol]
  Total SAPT2+                    -11.39773081 [mEh]      -7.15218406 [kcal/mol]     -29.92473811 [kJ/mol]

  Special recipe for scaled SAPT0 (see Manual):
    Electrostatics sSAPT0         -11.14655243 [mEh]      -6.99456725 [kcal/mol]     -29.26526937 [kJ/mol]
    Exchange sSAPT0                 0.00038109 [mEh]       0.00023913 [kcal/mol]       0.00100054 [kJ/mol]
    Induction sSAPT0               -0.70996219 [mEh]      -0.44550800 [kcal/mol]      -1.86400546 [kJ/mol]
    Dispersion sSAPT0              -0.04793955 [mEh]      -0.03008252 [kcal/mol]      -0.12586526 [kJ/mol]
  Total sSAPT0                    -11.90407308 [mEh]      -7.46991863 [kcal/mol]     -31.25413956 [kJ/mol]
  --------------------------------------------------------------------------------------------------------

*** Psi4 exiting successfully. Buy a developer a beer!
