                               Psi4 1.9 release

  ==> Input File <==

--------------------------------------------------------------------------
MEMORY 60 GB

molecule dimer {
0 1
O      0.000000     0.000000     0.000000
H     -0.588538     0.000000     0.756918
H     -0.588538     0.000000    -0.756918
--
2 1
K      2.948635     2.948635     0.000000
K      2.948635    -2.948635     0.000000

units ang
no_reorient
no_com
symmetry c1
}

set {
basis        aug-cc-pVTZ
scf_type     df
}

energy("sapt2+")
--------------------------------------------------------------------------

  //              Dimer HF             //
    Molecular point group: c1
  Charge       = 2
  Multiplicity = 1
  Basis Set: AUG-CC-PVTZ
    Blend: AUG-CC-PVTZ
  Basis Set: (AUG-CC-PVTZ AUX)
    Blend: AUG-CC-PVTZ-JKFIT + DEF2-UNIVERSAL-JKFIT
  @DF-RHF Final Energy: -1274.02849095558076
    Total Energy =                      -1274.0284909555809918
 Dipole X            :       -199.3650935          209.5159273           10.1508338
 Dipole Y            :         -0.0000000            0.0000000           -0.0000000
 Dipole Z            :         -0.0000000            0.0000000           -0.0000000
 Magnitude           :                                                   10.1508338
  //            Monomer A HF           //
    Molecular point group: c1
  Multiplicity = 1
  Basis Set: AUG-CC-PVTZ
    Blend: AUG-CC-PVTZ
  Basis Set: (AUG-CC-PVTZ AUX)
    Blend: AUG-CC-PVTZ-JKFIT + DEF2-UNIVERSAL-JKFIT
  @DF-RHF Final Energy:   -76.06049464414666
    Total Energy =                        -76.0604946441466581
  //            Monomer B HF           //
    Molecular point group: c1

    Geometry (in Angstrom), charge = 2, multiplicity = 1:

       Center              X                  Y                   Z               Mass
    ------------   -----------------  -----------------  -----------------  -----------------
      Gh(O)           0.000000000000     0.000000000000     0.000000000000    15.994914619570
      Gh(H)          -0.588538000000     0.000000000000     0.756918000000     1.007825032230
      Gh(H)          -0.588538000000     0.000000000000    -0.756918000000     1.007825032230
         K            2.948635000000     2.948635000000     0.000000000000    38.963706486400
         K            2.948635000000    -2.948635000000     0.000000000000    38.963706486400

  Charge       = 2
  Multiplicity = 1
  Basis Set: AUG-CC-PVTZ
    Blend: AUG-CC-PVTZ
  Basis Set: (AUG-CC-PVTZ AUX)
    Blend: AUG-CC-PVTZ-JKFIT + DEF2-UNIVERSAL-JKFIT

    Orbital Energies [Eh]
    ---------------------

    Doubly Occupied:

       1A   -133.843514     2A   -133.843514     3A    -14.798903
       4A    -14.798903     5A    -11.828993     6A    -11.828993
       7A    -11.828957     8A    -11.828957     9A    -11.828956
      10A    -11.828956    11A     -2.053921    12A     -2.053921
      13A     -1.261125    14A     -1.261099    15A     -1.260180
      16A     -1.260178    17A     -1.260171    18A     -1.260170

  @DF-RHF Final Energy: -1197.94560564845165

   => Energetics <=

    Nuclear Repulsion Energy =             32.3934588465289863
    One-Electron Energy =               -1700.8193090163726993
    Two-Electron Energy =                 470.4802445213919100
    Total Energy =                      -1197.9456056484518740
 Dipole X            :       -200.5962932          211.7402786           11.1439854
 Dipole Y            :          0.0000000            0.0000000            0.0000000
 Dipole Z            :          0.0000000            0.0000000            0.0000000
 Magnitude           :                                                   11.1439854

    SAPT Results
  --------------------------------------------------------------------------------------------------------
    Electrostatics                -19.20080134 [mEh]     -12.04868474 [kcal/mol]     -50.41169696 [kJ/mol]
      Elst10,r                    -20.16514459 [mEh]     -12.65381927 [kcal/mol]     -52.94357982 [kJ/mol]
      Elst12,r                      0.96434325 [mEh]       0.60513453 [kcal/mol]       2.53188286 [kJ/mol]

    Exchange                        0.10075177 [mEh]       0.06322269 [kcal/mol]       0.26452375 [kJ/mol]
      Exch10                        0.07422306 [mEh]       0.04657567 [kcal/mol]       0.19487262 [kJ/mol]
      Exch10(S^2)                   0.07422130 [mEh]       0.04657457 [kcal/mol]       0.19486801 [kJ/mol]
      Exch11(S^2)                   0.00118633 [mEh]       0.00074443 [kcal/mol]       0.00311470 [kJ/mol]
      Exch12(S^2)                   0.02534239 [mEh]       0.01590259 [kcal/mol]       0.06653643 [kJ/mol]

    Induction                      -2.56435436 [mEh]      -1.60915666 [kcal/mol]      -6.73271145 [kJ/mol]
      Ind20,r                      -2.31342112 [mEh]      -1.45169367 [kcal/mol]      -6.07388630 [kJ/mol]
      Ind22                        -0.27197520 [mEh]      -0.17066702 [kcal/mol]      -0.71407079 [kJ/mol]
      Exch-Ind20,r                  0.06262369 [mEh]       0.03929696 [kcal/mol]       0.16441847 [kJ/mol]
      Exch-Ind22                    0.00736230 [mEh]       0.00461991 [kcal/mol]       0.01932970 [kJ/mol]
      delta HF,r (2)               -0.04894403 [mEh]      -0.03071284 [kcal/mol]      -0.12850253 [kJ/mol]

    Dispersion                     -0.29760757 [mEh]      -0.18675157 [kcal/mol]      -0.78136856 [kJ/mol]
      Disp20                       -0.30260506 [mEh]      -0.18988754 [kcal/mol]      -0.79448947 [kJ/mol]
      Disp21                        0.04248349 [mEh]       0.02665879 [kcal/mol]       0.11154038 [kJ/mol]
      Disp22 (SDQ)                 -0.00527472 [mEh]      -0.00330994 [kcal/mol]      -0.01384879 [kJ/mol]
      Disp22 (T)                   -0.03349643 [mEh]      -0.02101933 [kcal/mol]      -0.08794486 [kJ/mol]
      Est. Disp22 (T)              -0.03559719 [mEh]      -0.02233758 [kcal/mol]      -0.09346042 [kJ/mol]
      Exch-Disp20                   0.00338592 [mEh]       0.00212470 [kcal/mol]       0.00888973 [kJ/mol]

  Total HF                        -22.39066298 [mEh]     -14.05035315 [kcal/mol]     -58.78667756 [kJ/mol]
  Total SAPT0                     -22.68988212 [mEh]     -14.23811599 [kcal/mol]     -59.57227730 [kJ/mol]
  Total SAPT2                     -21.96362306 [mEh]     -13.78238155 [kcal/mol]     -57.66548440 [kJ/mol]
  Total SAPT2+                    -21.96201149 [mEh]     -13.78137027 [kcal/mol]     -57.66125322 [kJ/mol]

  Special recipe for scaled SAPT0 (see Manual):
    Electrostatics sSAPT0         -20.16514459 [mEh]     -12.65381927 [kcal/mol]     -52.94357982 [kJ/mol]
    Exchange sSAPT0                 0.07422306 [mEh]       0.04657567 [kcal/mol]       0.19487262 [kJ/mol]
    Induction sSAPT0               -2.29973701 [mEh]      -1.44310676 [kcal/mol]      -6.03795869 [kJ/mol]
    Dispersion sSAPT0              -0.29921890 [mEh]      -0.18776269 [kcal/mol]      -0.78559910 [kJ/mol]
  Total sSAPT0                    -22.68987743 [mEh]     -14.23811305 [kcal/mol]     -59.57226499 [kJ/mol]
  --------------------------------------------------------------------------------------------------------

*** Psi4 exiting successfully. Buy a developer a beer!
