                               Psi4 1.9 release

  ==> Input File <==

--------------------------------------------------------------------------
MEMORY 60 GB

molecule dimer {
0 1
O      0.000000     0.000000     0.000000
H     -0.588538     0.000000     0.756918
H     -0.588538     0.000000    -0.756918
--
2 1
K      2.358908     2.358908     0.000000
K      2.358908    -2.358908     0.000000

units ang
no_reorient
no_com
symmetry c1
}

set {
basis        aug-cc-pVTZ
scf_type     df
}

energy("sapt2+")
--------------------------------------------------------------------------

  //              Dimer HF             //
    Molecular point group: c1
  Charge       = 2
  Multiplicity = 1
  Basis Set: AUG-CC-PVTZ
    Blend: AUG-CC-PVTZ
  Basis Set: (AUG-CC-PVTZ AUX)
    Blend: AUG-CC-PVTZ-JKFIT + DEF2-UNIVERSAL-JKFIT
  @DF-RHF Final Energy: -1274.01996277542639
    Total Energy =                      -1274.0199627754263929
 Dipole X            :       -159.3604574          167.1678716            7.8074142
 Dipole Y            :          0.0000000            0.0000000            0.0000000
 Dipole Z            :         -0.0000000            0.0000000           -0.0000000
 Magnitude           :                                                    7.8074142
  //            Monomer A HF           //
    Molecular point group: c1
  Multiplicity = 1
  Basis Set: AUG-CC-PVTZ
    Blend: AUG-CC-PVTZ
  Basis Set: (AUG-CC-PVTZ AUX)
    Blend: AUG-CC-PVTZ-JKFIT + DEF2-UNIVERSAL-JKFIT
  @DF-RHF Final Energy:   -76.06051148981071
    Total Energy =                        -76.0605114898106933
  //            Monomer B HF           //
    Molecular point group: c1

    Geometry (in Angstrom), charge = 2, multiplicity = 1:

       Center              X                  Y                   Z               Mass
    ------------   -----------------  -----------------  -----------------  -----------------
      Gh(O)           0.000000000000     0.000000000000     0.000000000000    15.994914619570
      Gh(H)          -0.588538000000     0.000000000000     0.756918000000     1.007825032230
      Gh(H)          -0.588538000000     0.000000000000    -0.756918000000     1.007825032230
         K            2.358908000000     2.358908000000     0.000000000000    38.963706486400
         K            2.358908000000    -2.358908000000     0.000000000000    38.963706486400

  Charge       = 2
  Multiplicity = 1
  Basis Set: AUG-CC-PVTZ
    Blend: AUG-CC-PVTZ
  Basis Set: (AUG-CC-PVTZ AUX)
    Blend: AUG-CC-PVTZ-JKFIT + DEF2-UNIVERSAL-JKFIT

    Orbital Energies [Eh]
    ---------------------

    Doubly Occupied:

       1A   -133.865749     2A   -133.865749     3A    -14.821093
       4A    -14.821093     5A    -11.851210     6A    -11.851210
       7A    -11.851142     8A    -11.851142     9A    -11.851141
      10A    -11.851141    11A     -2.076014    12A     -2.075992
      13A     -1.284032    14A     -1.283473    15A     -1.281998
      16A     -1.281988    17A     -1.281953    18A     -1.281943

  @DF-RHF Final Energy: -1197.92365844491997

   => Energetics <=

    Nuclear Repulsion Energy =             40.4918235581612294
    One-Electron Energy =               -1716.1748343120091249
    Two-Electron Energy =                 477.7593523089277028
    Total Energy =                      -1197.9236584449201928
 Dipole X            :       -160.4770145          169.3922229            8.9152084
 Dipole Y            :         -0.0000000            0.0000000           -0.0000000
 Dipole Z            :          0.0000000            0.0000000            0.0000000
 Magnitude           :                                                    8.9152084

    SAPT Results
  --------------------------------------------------------------------------------------------------------
    Electrostatics                -30.81239375 [mEh]     -19.33506899 [kcal/mol]     -80.89792864 [kJ/mol]
      Elst10,r                    -32.08849739 [mEh]     -20.13583611 [kcal/mol]     -84.24833829 [kJ/mol]
      Elst12,r                      1.27610364 [mEh]       0.80076712 [kcal/mol]       3.35040965 [kJ/mol]

    Exchange                        2.16014208 [mEh]       1.35550962 [kcal/mol]       5.67145224 [kJ/mol]
      Exch10                        1.76220620 [mEh]       1.10580108 [kcal/mol]       4.62667173 [kJ/mol]
      Exch10(S^2)                   1.76142661 [mEh]       1.10531189 [kcal/mol]       4.62462494 [kJ/mol]
      Exch11(S^2)                   0.02176199 [mEh]       0.01365586 [kcal/mol]       0.05713610 [kJ/mol]
      Exch12(S^2)                   0.37617389 [mEh]       0.23605268 [kcal/mol]       0.98764441 [kJ/mol]

    Induction                      -6.26872449 [mEh]      -3.93368401 [kcal/mol]     -16.45853389 [kJ/mol]
      Ind20,r                      -6.84645850 [mEh]      -4.29621757 [kcal/mol]     -17.97537432 [kJ/mol]
      Ind22                        -1.02522903 [mEh]      -0.64334093 [kcal/mol]      -2.69173846 [kJ/mol]
      Exch-Ind20,r                  1.48955033 [mEh]       0.93470694 [kcal/mol]       3.91081384 [kJ/mol]
      Exch-Ind22                    0.22305404 [mEh]       0.13996852 [kcal/mol]       0.58562831 [kJ/mol]
      delta HF,r (2)               -0.10964133 [mEh]      -0.06880097 [kcal/mol]      -0.28786326 [kJ/mol]

    Dispersion                     -1.23892628 [mEh]      -0.77743798 [kcal/mol]      -3.25280051 [kJ/mol]
      Disp20                       -1.29950260 [mEh]      -0.81545019 [kcal/mol]      -3.41184360 [kJ/mol]
      Disp21                        0.15823551 [mEh]       0.09929428 [kcal/mol]       0.41544727 [kJ/mol]
      Disp22 (SDQ)                 -0.02047794 [mEh]      -0.01285010 [kcal/mol]      -0.05376482 [kJ/mol]
      Disp22 (T)                   -0.13427093 [mEh]      -0.08425628 [kcal/mol]      -0.35252827 [kJ/mol]
      Est. Disp22 (T)              -0.14796749 [mEh]      -0.09285100 [kcal/mol]      -0.38848859 [kJ/mol]
      Exch-Disp20                   0.07078623 [mEh]       0.04441903 [kcal/mol]       0.18584923 [kJ/mol]

  Total HF                        -35.79284070 [mEh]     -22.46034663 [kcal/mol]     -93.97409030 [kJ/mol]
  Total SAPT0                     -37.02155706 [mEh]     -23.23137779 [kcal/mol]     -97.20008468 [kJ/mol]
  Total SAPT2                     -36.14969253 [mEh]     -22.68427454 [kcal/mol]     -94.91100467 [kJ/mol]
  Total SAPT2+                    -36.15990245 [mEh]     -22.69068136 [kcal/mol]     -94.93781081 [kJ/mol]

  Special recipe for scaled SAPT0 (see Manual):
    Electrostatics sSAPT0         -32.08849739 [mEh]     -20.13583611 [kcal/mol]     -84.24833829 [kJ/mol]
    Exchange sSAPT0                 1.76220620 [mEh]       1.10580108 [kcal/mol]       4.62667173 [kJ/mol]
    Induction sSAPT0               -5.46457086 [mEh]      -3.42906999 [kcal/mol]     -14.34722882 [kJ/mol]
    Dispersion sSAPT0              -1.22862234 [mEh]      -0.77097216 [kcal/mol]      -3.22574751 [kJ/mol]
  Total sSAPT0                    -37.01948439 [mEh]     -23.23007717 [kcal/mol]     -97.19464288 [kJ/mol]
  --------------------------------------------------------------------------------------------------------

*** Psi4 exiting successfully. Buy a developer a beer!
