                               Psi4 1.9 release

  ==> Input File <==

--------------------------------------------------------------------------
MEMORY 60 GB

molecule dimer {
0 1
O      0.000000     0.000000     0.000000
H     -0.588538     0.000000     0.756918
H     -0.588538     0.000000    -0.756918
--
2 1
K      2.162333     2.162333     0.000000
K      2.162333    -2.162333     0.000000

units ang
no_reorient
no_com
symmetry c1
}

set {
basis        aug-cc-pVTZ
scf_type     df
}

energy("sapt2+")
--------------------------------------------------------------------------

  //              Dimer HF             //
    Molecular point group: c1
  Charge       = 2
  Multiplicity = 1
  Basis Set: AUG-CC-PVTZ
    Blend: AUG-CC-PVTZ
  Basis Set: (AUG-CC-PVTZ AUX)
    Blend: AUG-CC-PVTZ-JKFIT + DEF2-UNIVERSAL-JKFIT
  @DF-RHF Final Energy: -1274.01562964444929
    Total Energy =                      -1274.0156296444492909
 Dipole X            :       -146.0377001          153.0519009            7.0142008
 Dipole Y            :         -0.0000000            0.0000000           -0.0000000
 Dipole Z            :          0.0000000            0.0000000            0.0000000
 Magnitude           :                                                    7.0142008
  //            Monomer A HF           //
    Molecular point group: c1
  Multiplicity = 1
  Basis Set: AUG-CC-PVTZ
    Blend: AUG-CC-PVTZ
  Basis Set: (AUG-CC-PVTZ AUX)
    Blend: AUG-CC-PVTZ-JKFIT + DEF2-UNIVERSAL-JKFIT
  @DF-RHF Final Energy:   -76.06052048814993
    Total Energy =                        -76.0605204881499333
  //            Monomer B HF           //
    Molecular point group: c1

    Geometry (in Angstrom), charge = 2, multiplicity = 1:

       Center              X                  Y                   Z               Mass
    ------------   -----------------  -----------------  -----------------  -----------------
      Gh(O)           0.000000000000     0.000000000000     0.000000000000    15.994914619570
      Gh(H)          -0.588538000000     0.000000000000     0.756918000000     1.007825032230
      Gh(H)          -0.588538000000     0.000000000000    -0.756918000000     1.007825032230
         K            2.162333000000     2.162333000000     0.000000000000    38.963706486400
         K            2.162333000000    -2.162333000000     0.000000000000    38.963706486400

  Charge       = 2
  Multiplicity = 1
  Basis Set: AUG-CC-PVTZ
    Blend: AUG-CC-PVTZ
  Basis Set: (AUG-CC-PVTZ AUX)
    Blend: AUG-CC-PVTZ-JKFIT + DEF2-UNIVERSAL-JKFIT

    Orbital Energies [Eh]
    ---------------------

    Doubly Occupied:

       1A   -133.875805     2A   -133.875805     3A    -14.831111
       4A    -14.831111     5A    -11.861244     6A    -11.861244
       7A    -11.861157     8A    -11.861157     9A    -11.861156
      10A    -11.861156    11A     -2.085978    12A     -2.085895
      13A     -1.294777    14A     -1.293266    15A     -1.291805
      16A     -1.291791    17A     -1.291671    18A     -1.291658

  @DF-RHF Final Energy: -1197.91381183606768

   => Energetics <=

    Nuclear Repulsion Energy =             44.1728848081840368
    One-Electron Energy =               -1723.1578196918187587
    Two-Electron Energy =                 481.0711230475670277
    Total Energy =                      -1197.9138118360676799
 Dipole X            :       -147.1039929          155.2762522            8.1722592
 Dipole Y            :         -0.0000000            0.0000000           -0.0000000
 Dipole Z            :          0.0000000            0.0000000            0.0000000
 Magnitude           :                                                    8.1722592

    SAPT Results
  --------------------------------------------------------------------------------------------------------
    Electrostatics                -37.67500773 [mEh]     -23.64142428 [kcal/mol]     -98.91571917 [kJ/mol]
      Elst10,r                    -38.95160023 [mEh]     -24.44249816 [kcal/mol]    -102.26741231 [kJ/mol]
      Elst12,r                      1.27659250 [mEh]       0.80107389 [kcal/mol]       3.35169314 [kJ/mol]

    Exchange                        6.07467310 [mEh]       3.81191492 [kcal/mol]      15.94905202 [kJ/mol]
      Exch10                        5.13647730 [mEh]       3.22318817 [kcal/mol]      13.48581929 [kJ/mol]
      Exch10(S^2)                   5.13027307 [mEh]       3.21929496 [kcal/mol]      13.46953009 [kJ/mol]
      Exch11(S^2)                   0.05583904 [mEh]       0.03503953 [kcal/mol]       0.14660539 [kJ/mol]
      Exch12(S^2)                   0.88235676 [mEh]       0.55368722 [kcal/mol]       2.31662734 [kJ/mol]

    Induction                      -8.70137126 [mEh]      -5.46019290 [kcal/mol]     -22.84544708 [kJ/mol]
      Ind20,r                     -11.71974631 [mEh]      -7.35425184 [kcal/mol]     -30.77018969 [kJ/mol]
      Ind22                        -1.94136730 [mEh]      -1.21822638 [kcal/mol]      -5.09705916 [kJ/mol]
      Exch-Ind20,r                  4.35977408 [mEh]       2.73579954 [kcal/mol]      11.44658527 [kJ/mol]
      Exch-Ind22                    0.72219335 [mEh]       0.45318317 [kcal/mol]       1.89611838 [kJ/mol]
      delta HF,r (2)               -0.12222508 [mEh]      -0.07669739 [kcal/mol]      -0.32090189 [kJ/mol]

    Dispersion                     -2.13124008 [mEh]      -1.33737334 [kcal/mol]      -5.59557005 [kJ/mol]
      Disp20                       -2.30660148 [mEh]      -1.44741428 [kcal/mol]      -6.05598135 [kJ/mol]
      Disp21                        0.26622119 [mEh]       0.16705632 [kcal/mol]       0.69896363 [kJ/mol]
      Disp22 (SDQ)                 -0.03288675 [mEh]      -0.02063675 [kcal/mol]      -0.08634416 [kJ/mol]
      Disp22 (T)                   -0.23198960 [mEh]      -0.14557567 [kcal/mol]      -0.60908860 [kJ/mol]
      Est. Disp22 (T)              -0.25899107 [mEh]      -0.16251935 [kcal/mol]      -0.67998096 [kJ/mol]
      Exch-Disp20                   0.20101804 [mEh]       0.12614072 [kcal/mol]       0.52777278 [kJ/mol]

  Total HF                        -41.29732023 [mEh]     -25.91445969 [kcal/mol]    -108.42609933 [kJ/mol]
  Total SAPT0                     -43.40290368 [mEh]     -27.23573325 [kcal/mol]    -113.95430790 [kJ/mol]
  Total SAPT2                     -42.40728933 [mEh]     -26.61097581 [kcal/mol]    -111.34032280 [kJ/mol]
  Total SAPT2+                    -42.43294597 [mEh]     -26.62707559 [kcal/mol]    -111.40768429 [kJ/mol]

  Special recipe for scaled SAPT0 (see Manual):
    Electrostatics sSAPT0         -38.95160023 [mEh]     -24.44249816 [kcal/mol]    -102.26741231 [kJ/mol]
    Exchange sSAPT0                 5.13647730 [mEh]       3.22318817 [kcal/mol]      13.48581929 [kJ/mol]
    Induction sSAPT0               -7.46636087 [mEh]      -4.68521218 [kcal/mol]     -19.60292775 [kJ/mol]
    Dispersion sSAPT0              -2.10485327 [mEh]      -1.32081537 [kcal/mol]      -5.52629149 [kJ/mol]
  Total sSAPT0                    -43.38633706 [mEh]     -27.22533754 [kcal/mol]    -113.91081226 [kJ/mol]
  --------------------------------------------------------------------------------------------------------

*** Psi4 exiting successfully. Buy a developer a beer!
