                               Psi4 1.9 release

  ==> Input File <==

--------------------------------------------------------------------------
MEMORY 60 GB

molecule dimer {
0 1
O      0.000000     0.000000     0.000000
H      0.588538     0.756918     0.000000
H      0.588538    -0.756918     0.000000
--
-2 1
F      3.860803     3.860803     0.000000
F      3.860803    -3.860803     0.000000

units ang
no_reorient
no_com
symmetry c1
}

set {
basis        aug-cc-pVTZ
scf_type     df
}

energy("sapt2+")
--------------------------------------------------------------------------

  //              Dimer HF             //
    Molecular point group: c1
  Charge       = -2
  Multiplicity = 1
  Basis Set: AUG-CC-PVTZ
    Blend: AUG-CC-PVTZ
  Basis Set: (AUG-CC-PVTZ AUX)
    Blend: AUG-CC-PVTZ-JKFIT
  @DF-RHF Final Energy:  -274.90731610020202
    Total Energy =                       -274.9073161002020242
 Dipole X            :       -147.2309730          133.5498366          -13.6811365
 Dipole Y            :          0.0000000            0.0000000            0.0000000
 Dipole Z            :         -0.0000000            0.0000000           -0.0000000
 Magnitude           :                                                   13.6811365
  //            Monomer A HF           //
    Molecular point group: c1
  Multiplicity = 1
  Basis Set: AUG-CC-PVTZ
    Blend: AUG-CC-PVTZ
  Basis Set: (AUG-CC-PVTZ AUX)
    Blend: AUG-CC-PVTZ-JKFIT
  @DF-RHF Final Energy:   -76.06048393545787
    Total Energy =                        -76.0604839354578814
  //            Monomer B HF           //
    Molecular point group: c1

    Geometry (in Angstrom), charge = -2, multiplicity = 1:

       Center              X                  Y                   Z               Mass
    ------------   -----------------  -----------------  -----------------  -----------------
      Gh(O)           0.000000000000     0.000000000000     0.000000000000    15.994914619570
      Gh(H)           0.588538000000     0.756918000000     0.000000000000     1.007825032230
      Gh(H)           0.588538000000    -0.756918000000     0.000000000000     1.007825032230
         F            3.860803000000     3.860803000000     0.000000000000    18.998403162730
         F            3.860803000000    -3.860803000000     0.000000000000    18.998403162730

  Charge       = -2
  Multiplicity = 1
  Basis Set: AUG-CC-PVTZ
    Blend: AUG-CC-PVTZ
  Basis Set: (AUG-CC-PVTZ AUX)
    Blend: AUG-CC-PVTZ-JKFIT

    Orbital Energies [Eh]
    ---------------------

    Doubly Occupied:

       1A    -25.765456     2A    -25.765455     3A     -1.007736
       4A     -1.007736     5A     -0.112686     6A     -0.112658
       7A     -0.112657     8A     -0.112654     9A     -0.112647
      10A     -0.112640

  @DF-RHF Final Energy:  -198.83325874515808

   => Energetics <=

    Nuclear Repulsion Energy =              5.5510931358411710
    One-Electron Energy =                -300.3240542982651959
    Two-Electron Energy =                  95.9397024172660053
    Total Energy =                       -198.8332587451580480
 Dipole X            :       -145.9186087          131.3254853          -14.5931234
 Dipole Y            :         -0.0000000            0.0000000           -0.0000000
 Dipole Z            :         -0.0000000            0.0000000           -0.0000000
 Magnitude           :                                                   14.5931234

    SAPT Results
  --------------------------------------------------------------------------------------------------------
    Electrostatics                -12.07382817 [mEh]      -7.57644156 [kcal/mol]     -31.69983148 [kJ/mol]
      Elst10,r                    -12.73255695 [mEh]      -7.98980011 [kcal/mol]     -33.42932365 [kJ/mol]
      Elst12,r                      0.65872878 [mEh]       0.41335855 [kcal/mol]       1.72949217 [kJ/mol]

    Exchange                        0.01738007 [mEh]       0.01090616 [kcal/mol]       0.04563138 [kJ/mol]
      Exch10                        0.00761247 [mEh]       0.00477690 [kcal/mol]       0.01998655 [kJ/mol]
      Exch10(S^2)                   0.00761249 [mEh]       0.00477691 [kcal/mol]       0.01998658 [kJ/mol]
      Exch11(S^2)                   0.00032242 [mEh]       0.00020232 [kcal/mol]       0.00084651 [kJ/mol]
      Exch12(S^2)                   0.00944518 [mEh]       0.00592694 [kcal/mol]       0.02479832 [kJ/mol]

    Induction                      -0.94541724 [mEh]      -0.59325827 [kcal/mol]      -2.48219262 [kJ/mol]
      Ind20,r                      -0.85319937 [mEh]      -0.53539069 [kcal/mol]      -2.24007465 [kJ/mol]
      Ind22                        -0.09735664 [mEh]      -0.06109222 [kcal/mol]      -0.25560983 [kJ/mol]
      Exch-Ind20,r                  0.00363269 [mEh]       0.00227955 [kcal/mol]       0.00953763 [kJ/mol]
      Exch-Ind22                    0.00041452 [mEh]       0.00026011 [kcal/mol]       0.00108832 [kJ/mol]
      delta HF,r (2)                0.00109157 [mEh]       0.00068497 [kcal/mol]       0.00286591 [kJ/mol]

    Dispersion                     -0.12225907 [mEh]      -0.07671872 [kcal/mol]      -0.32099114 [kJ/mol]
      Disp20                       -0.08812215 [mEh]      -0.05529748 [kcal/mol]      -0.23136466 [kJ/mol]
      Disp21                       -0.00146390 [mEh]      -0.00091861 [kcal/mol]      -0.00384346 [kJ/mol]
      Disp22 (SDQ)                 -0.01252268 [mEh]      -0.00785810 [kcal/mol]      -0.03287830 [kJ/mol]
      Disp22 (T)                   -0.01985762 [mEh]      -0.01246084 [kcal/mol]      -0.05213617 [kJ/mol]
      Est. Disp22 (T)              -0.02142269 [mEh]      -0.01344294 [kcal/mol]      -0.05624526 [kJ/mol]
      Exch-Disp20                   0.00127234 [mEh]       0.00079841 [kcal/mol]       0.00334054 [kJ/mol]

  Total HF                        -13.57341959 [mEh]      -8.51744938 [kcal/mol]     -35.63700821 [kJ/mol]
  Total SAPT0                     -13.66026939 [mEh]      -8.57194845 [kcal/mol]     -35.86503233 [kJ/mol]
  Total SAPT2                     -13.08871513 [mEh]      -8.21329275 [kcal/mol]     -34.36441685 [kJ/mol]
  Total SAPT2+                    -13.12412440 [mEh]      -8.23551240 [kcal/mol]     -34.45738387 [kJ/mol]

  Special recipe for scaled SAPT0 (see Manual):
    Electrostatics sSAPT0         -12.73255695 [mEh]      -7.98980011 [kcal/mol]     -33.42932365 [kJ/mol]
    Exchange sSAPT0                 0.00761247 [mEh]       0.00477690 [kcal/mol]       0.01998655 [kJ/mol]
    Induction sSAPT0               -0.84847512 [mEh]      -0.53242617 [kcal/mol]      -2.22767111 [kJ/mol]
    Dispersion sSAPT0              -0.08684980 [mEh]      -0.05449907 [kcal/mol]      -0.22802412 [kJ/mol]
  Total sSAPT0                    -13.66026939 [mEh]      -8.57194845 [kcal/mol]     -35.86503233 [kJ/mol]
  --------------------------------------------------------------------------------------------------------

*** Psi4 exiting successfully. Buy a developer a beer!
