                               Psi4 1.9 release

  ==> Input File <==

--------------------------------------------------------------------------
MEMORY 60 GB

molecule dimer {
0 1
O      0.000000     0.000000     0.000000
H      0.588538     0.756918     0.000000
H      0.588538    -0.756918     0.000000
--
-2 1
F      2.316482     2.316482     0.000000
F      2.316482    -2.316482     0.000000

units ang
no_reorient
no_com
symmetry c1
}

set {
basis        aug-cc-pVTZ
scf_type     df
}

energy("sapt2+")
--------------------------------------------------------------------------

  //              Dimer HF             //
    Molecular point group: c1
  Charge       = -2
  Multiplicity = 1
  Basis Set: AUG-CC-PVTZ
    Blend: AUG-CC-PVTZ
  Basis Set: (AUG-CC-PVTZ AUX)
    Blend: AUG-CC-PVTZ-JKFIT
  @DF-RHF Final Energy:  -274.89563186261569
    Total Energy =                       -274.8956318626156872
 Dipole X            :        -88.5781502           81.0196493           -7.5585009
 Dipole Y            :         -0.0000000            0.0000000           -0.0000000
 Dipole Z            :         -0.0000000            0.0000000           -0.0000000
 Magnitude           :                                                    7.5585009
  //            Monomer A HF           //
    Molecular point group: c1
  Multiplicity = 1
  Basis Set: AUG-CC-PVTZ
    Blend: AUG-CC-PVTZ
  Basis Set: (AUG-CC-PVTZ AUX)
    Blend: AUG-CC-PVTZ-JKFIT
  @DF-RHF Final Energy:   -76.06051253556032
    Total Energy =                        -76.0605125355603207
  //            Monomer B HF           //
    Molecular point group: c1

    Geometry (in Angstrom), charge = -2, multiplicity = 1:

       Center              X                  Y                   Z               Mass
    ------------   -----------------  -----------------  -----------------  -----------------
      Gh(O)           0.000000000000     0.000000000000     0.000000000000    15.994914619570
      Gh(H)           0.588538000000     0.756918000000     0.000000000000     1.007825032230
      Gh(H)           0.588538000000    -0.756918000000     0.000000000000     1.007825032230
         F            2.316482000000     2.316482000000     0.000000000000    18.998403162730
         F            2.316482000000    -2.316482000000     0.000000000000    18.998403162730

  Charge       = -2
  Multiplicity = 1
  Basis Set: AUG-CC-PVTZ
    Blend: AUG-CC-PVTZ
  Basis Set: (AUG-CC-PVTZ AUX)
    Blend: AUG-CC-PVTZ-JKFIT

    Orbital Energies [Eh]
    ---------------------

    Doubly Occupied:

       1A    -25.722429     2A    -25.722429     3A     -0.964315
       4A     -0.964278     5A     -0.069972     6A     -0.069385
       7A     -0.069338     8A     -0.069045     9A     -0.069006
      10A     -0.067965

  @DF-RHF Final Energy:  -198.78904547263062

   => Energetics <=

    Nuclear Repulsion Energy =              9.2518210942865089
    One-Electron Energy =                -308.5054121813654433
    Two-Electron Energy =                 100.4645456144483262
    Total Energy =                       -198.7890454726305904
 Dipole X            :        -87.5587794           78.7952980           -8.7634814
 Dipole Y            :         -0.0000000            0.0000000           -0.0000000
 Dipole Z            :         -0.0000000            0.0000000           -0.0000000
 Magnitude           :                                                    8.7634814

    SAPT Results
  --------------------------------------------------------------------------------------------------------
    Electrostatics                -41.37456975 [mEh]     -25.96293449 [kcal/mol]    -108.62891791 [kJ/mol]
      Elst10,r                    -43.07984085 [mEh]     -27.03300826 [kcal/mol]    -113.10610656 [kJ/mol]
      Elst12,r                      1.70527109 [mEh]       1.07007377 [kcal/mol]       4.47718864 [kJ/mol]

    Exchange                        8.17582413 [mEh]       5.13040710 [kcal/mol]      21.46562330 [kJ/mol]
      Exch10                        5.69108247 [mEh]       3.57120817 [kcal/mol]      14.94193496 [kJ/mol]
      Exch10(S^2)                   5.68833686 [mEh]       3.56948527 [kcal/mol]      14.93472638 [kJ/mol]
      Exch11(S^2)                   0.11967877 [mEh]       0.07509956 [kcal/mol]       0.31421658 [kJ/mol]
      Exch12(S^2)                   2.36506289 [mEh]       1.48409937 [kcal/mol]       6.20947176 [kJ/mol]

    Induction                     -10.01579197 [mEh]      -6.28500435 [kcal/mol]     -26.29645820 [kJ/mol]
      Ind20,r                      -9.37291802 [mEh]      -5.88159486 [kcal/mol]     -24.60859288 [kJ/mol]
      Ind22                        -1.63816839 [mEh]      -1.02796619 [kcal/mol]      -4.30101053 [kJ/mol]
      Exch-Ind20,r                  1.75922955 [mEh]       1.10393321 [kcal/mol]       4.61885654 [kJ/mol]
      Exch-Ind22                    0.30747247 [mEh]       0.19294189 [kcal/mol]       0.80726885 [kJ/mol]
      delta HF,r (2)               -1.07140757 [mEh]      -0.67231840 [kcal/mol]      -2.81298019 [kJ/mol]

    Dispersion                     -4.39883866 [mEh]      -2.76031293 [kcal/mol]     -11.54914932 [kJ/mol]
      Disp20                       -3.58772224 [mEh]      -2.25132970 [kcal/mol]      -9.41956345 [kJ/mol]
      Disp21                       -0.10681651 [mEh]      -0.06702837 [kcal/mol]      -0.28044670 [kJ/mol]
      Disp22 (SDQ)                 -0.46037335 [mEh]      -0.28888864 [kcal/mol]      -1.20871007 [kJ/mol]
      Disp22 (T)                   -0.72062888 [mEh]      -0.45220145 [kcal/mol]      -1.89201086 [kJ/mol]
      Est. Disp22 (T)              -0.84013786 [mEh]      -0.52719446 [kcal/mol]      -2.20578164 [kJ/mol]
      Exch-Disp20                   0.59621130 [mEh]       0.37412824 [kcal/mol]       1.56535254 [kJ/mol]

  Total HF                        -46.07385442 [mEh]     -28.91178014 [kcal/mol]    -120.96688813 [kJ/mol]
  Total SAPT0                     -49.06536537 [mEh]     -30.78898161 [kcal/mol]    -128.82109904 [kJ/mol]
  Total SAPT2                     -46.20604854 [mEh]     -28.99473321 [kcal/mol]    -121.31396373 [kJ/mol]
  Total SAPT2+                    -47.61337626 [mEh]     -29.87784468 [kcal/mol]    -125.00890214 [kJ/mol]

  Special recipe for scaled SAPT0 (see Manual):
    Electrostatics sSAPT0         -43.07984085 [mEh]     -27.03300826 [kcal/mol]    -113.10610656 [kJ/mol]
    Exchange sSAPT0                 5.69108247 [mEh]       3.57120817 [kcal/mol]      14.94193496 [kJ/mol]
    Induction sSAPT0               -8.68254742 [mEh]      -5.44838076 [kcal/mol]     -22.79602511 [kJ/mol]
    Dispersion sSAPT0              -2.99064721 [mEh]      -1.87665945 [kcal/mol]      -7.85194316 [kJ/mol]
  Total sSAPT0                    -49.06195300 [mEh]     -30.78684031 [kcal/mol]    -128.81213986 [kJ/mol]
  --------------------------------------------------------------------------------------------------------

*** Psi4 exiting successfully. Buy a developer a beer!
