                               Psi4 1.9 release

  ==> Input File <==

--------------------------------------------------------------------------
MEMORY 60 GB

molecule dimer {
0 1
O      0.000000     0.000000     0.000000
H      0.588538     0.756918     0.000000
H      0.588538    -0.756918     0.000000
--
-2 1
F      1.930402     1.930402     0.000000
F      1.930402    -1.930402     0.000000

units ang
no_reorient
no_com
symmetry c1
}

set {
basis        aug-cc-pVTZ
scf_type     df
}

energy("sapt2+")
--------------------------------------------------------------------------

  //              Dimer HF             //
    Molecular point group: c1
  Charge       = -2
  Multiplicity = 1
  Basis Set: AUG-CC-PVTZ
    Blend: AUG-CC-PVTZ
  Basis Set: (AUG-CC-PVTZ AUX)
    Blend: AUG-CC-PVTZ-JKFIT
  @DF-RHF Final Energy:  -274.89061331084719
    Total Energy =                       -274.8906133108472432
 Dipole X            :        -73.7718025           67.8871109           -5.8846916
 Dipole Y            :         -0.0000000            0.0000000           -0.0000000
 Dipole Z            :         -0.0000000            0.0000000           -0.0000000
 Magnitude           :                                                    5.8846916
  //            Monomer A HF           //
    Molecular point group: c1
  Multiplicity = 1
  Basis Set: AUG-CC-PVTZ
    Blend: AUG-CC-PVTZ
  Basis Set: (AUG-CC-PVTZ AUX)
    Blend: AUG-CC-PVTZ-JKFIT
  @DF-RHF Final Energy:   -76.06054472611960
    Total Energy =                        -76.0605447261196019
  //            Monomer B HF           //
    Molecular point group: c1

    Geometry (in Angstrom), charge = -2, multiplicity = 1:

       Center              X                  Y                   Z               Mass
    ------------   -----------------  -----------------  -----------------  -----------------
      Gh(O)           0.000000000000     0.000000000000     0.000000000000    15.994914619570
      Gh(H)           0.588538000000     0.756918000000     0.000000000000     1.007825032230
      Gh(H)           0.588538000000    -0.756918000000     0.000000000000     1.007825032230
         F            1.930402000000     1.930402000000     0.000000000000    18.998403162730
         F            1.930402000000    -1.930402000000     0.000000000000    18.998403162730

  Charge       = -2
  Multiplicity = 1
  Basis Set: AUG-CC-PVTZ
    Blend: AUG-CC-PVTZ
  Basis Set: (AUG-CC-PVTZ AUX)
    Blend: AUG-CC-PVTZ-JKFIT

    Orbital Energies [Eh]
    ---------------------

    Doubly Occupied:

       1A    -25.703035     2A    -25.703034     3A     -0.944520
       4A     -0.944256     5A     -0.051743     6A     -0.049924
       7A     -0.049828     8A     -0.048720     9A     -0.048636
      10A     -0.045533

  @DF-RHF Final Energy:  -198.76800893644241

   => Energetics <=

    Nuclear Repulsion Energy =             11.1021833960672449
    One-Electron Energy =                -312.5619240550437326
    Two-Electron Energy =                 102.6917317225340867
    Total Energy =                       -198.7680089364424134
 Dipole X            :        -72.9708907           65.6627597           -7.3081311
 Dipole Y            :         -0.0000000            0.0000000           -0.0000000
 Dipole Z            :         -0.0000000            0.0000000           -0.0000000
 Magnitude           :                                                    7.3081311

    SAPT Results
  --------------------------------------------------------------------------------------------------------
    Electrostatics                -72.76016080 [mEh]     -45.65769022 [kcal/mol]    -191.03177587 [kJ/mol]
      Elst10,r                    -74.71428312 [mEh]     -46.88392048 [kcal/mol]    -196.16232330 [kJ/mol]
      Elst12,r                      1.95412231 [mEh]       1.22623027 [kcal/mol]       5.13054743 [kJ/mol]

    Exchange                       45.56391577 [mEh]      28.59178881 [kcal/mol]     119.62804437 [kJ/mol]
      Exch10                       35.98248434 [mEh]      22.57934982 [kcal/mol]      94.47199963 [kJ/mol]
      Exch10(S^2)                  35.78929581 [mEh]      22.45812218 [kcal/mol]      93.96478320 [kJ/mol]
      Exch11(S^2)                   0.45171649 [mEh]       0.28345638 [kcal/mol]       1.18598149 [kJ/mol]
      Exch12(S^2)                   9.12971493 [mEh]       5.72898261 [kcal/mol]      23.97006326 [kJ/mol]

    Induction                     -26.58718138 [mEh]     -16.68370820 [kcal/mol]     -69.80463510 [kJ/mol]
      Ind20,r                     -27.43221074 [mEh]     -17.21397212 [kcal/mol]     -72.02325936 [kJ/mol]
      Ind22                        -5.35585456 [mEh]      -3.36084948 [kcal/mol]     -14.06179422 [kJ/mol]
      Exch-Ind20,r                 10.73820278 [mEh]       6.73832398 [kcal/mol]      28.19314752 [kJ/mol]
      Exch-Ind22                    2.09652270 [mEh]       1.31558785 [kcal/mol]       5.50441958 [kJ/mol]
      delta HF,r (2)               -6.63384156 [mEh]      -4.16279843 [kcal/mol]     -17.41714862 [kJ/mol]

    Dispersion                    -12.39500401 [mEh]      -7.77798244 [kcal/mol]     -32.54307853 [kJ/mol]
      Disp20                      -11.81978190 [mEh]      -7.41702512 [kcal/mol]     -31.03283312 [kJ/mol]
      Disp21                        0.13799060 [mEh]       0.08659041 [kcal/mol]       0.36229428 [kJ/mol]
      Disp22 (SDQ)                 -1.16844487 [mEh]      -0.73321023 [kcal/mol]      -3.06775159 [kJ/mol]
      Disp22 (T)                   -2.11903389 [mEh]      -1.32971384 [kcal/mol]      -5.56352271 [kJ/mol]
      Est. Disp22 (T)              -2.48475238 [mEh]      -1.55920566 [kcal/mol]      -6.52371647 [kJ/mol]
      Exch-Disp20                   2.93998455 [mEh]       1.84486816 [kcal/mol]       7.71892836 [kJ/mol]

  Total HF                        -62.05964829 [mEh]     -38.94301724 [kcal/mol]    -162.93758412 [kJ/mol]
  Total SAPT0                     -70.93944564 [mEh]     -44.51517421 [kcal/mol]    -186.25148888 [kJ/mol]
  Total SAPT2                     -62.66322377 [mEh]     -39.32176657 [kcal/mol]    -164.52227135 [kJ/mol]
  Total SAPT2+                    -66.17843042 [mEh]     -41.52759205 [kcal/mol]    -173.75144513 [kJ/mol]

  Special recipe for scaled SAPT0 (see Manual):
    Electrostatics sSAPT0         -74.71428312 [mEh]     -46.88392048 [kcal/mol]    -196.16232330 [kJ/mol]
    Exchange sSAPT0                35.98248434 [mEh]      22.57934982 [kcal/mol]      94.47199963 [kJ/mol]
    Induction sSAPT0              -23.15301658 [mEh]     -14.52873725 [kcal/mol]     -60.78823666 [kJ/mol]
    Dispersion sSAPT0              -8.83193031 [mEh]      -5.54211994 [kcal/mol]     -23.18822982 [kJ/mol]
  Total sSAPT0                    -70.71674566 [mEh]     -44.37542786 [kcal/mol]    -185.66679015 [kJ/mol]
  --------------------------------------------------------------------------------------------------------

*** Psi4 exiting successfully. Buy a developer a beer!
