                               Psi4 1.9 release

  ==> Input File <==

--------------------------------------------------------------------------
MEMORY 60 GB

molecule dimer {
0 1
O      0.000000     0.000000     0.000000
H      0.588538     0.756918     0.000000
H      0.588538    -0.756918     0.000000
--
-2 1
F      2.509522     2.509522     0.000000
F      2.509522    -2.509522     0.000000

units ang
no_reorient
no_com
symmetry c1
}

set {
basis        aug-cc-pVTZ
scf_type     df
}

energy("sapt2+")
--------------------------------------------------------------------------

  //              Dimer HF             //
    Molecular point group: c1
  Charge       = -2
  Multiplicity = 1
  Basis Set: AUG-CC-PVTZ
    Blend: AUG-CC-PVTZ
  Basis Set: (AUG-CC-PVTZ AUX)
    Blend: AUG-CC-PVTZ-JKFIT
  @DF-RHF Final Energy:  -274.89627975305274
    Total Energy =                       -274.8962797530527951
 Dipole X            :        -95.9423917           87.5859184           -8.3564733
 Dipole Y            :          0.0000000            0.0000000            0.0000000
 Dipole Z            :         -0.0000000            0.0000000           -0.0000000
 Magnitude           :                                                    8.3564733
  //            Monomer A HF           //
    Molecular point group: c1
  Multiplicity = 1
  Basis Set: AUG-CC-PVTZ
    Blend: AUG-CC-PVTZ
  Basis Set: (AUG-CC-PVTZ AUX)
    Blend: AUG-CC-PVTZ-JKFIT
  @DF-RHF Final Energy:   -76.06050273030743
    Total Energy =                        -76.0605027303074337
  //            Monomer B HF           //
    Molecular point group: c1

    Geometry (in Angstrom), charge = -2, multiplicity = 1:

       Center              X                  Y                   Z               Mass
    ------------   -----------------  -----------------  -----------------  -----------------
      Gh(O)           0.000000000000     0.000000000000     0.000000000000    15.994914619570
      Gh(H)           0.588538000000     0.756918000000     0.000000000000     1.007825032230
      Gh(H)           0.588538000000    -0.756918000000     0.000000000000     1.007825032230
         F            2.509522000000     2.509522000000     0.000000000000    18.998403162730
         F            2.509522000000    -2.509522000000     0.000000000000    18.998403162730

  Charge       = -2
  Multiplicity = 1
  Basis Set: AUG-CC-PVTZ
    Blend: AUG-CC-PVTZ
  Basis Set: (AUG-CC-PVTZ AUX)
    Blend: AUG-CC-PVTZ-JKFIT

    Orbital Energies [Eh]
    ---------------------

    Doubly Occupied:

       1A    -25.730334     2A    -25.730334     3A     -0.972338
       4A     -0.972324     5A     -0.077690     6A     -0.077342
       7A     -0.077299     8A     -0.077157     9A     -0.077121
      10A     -0.076519

  @DF-RHF Final Energy:  -198.79734132239162

   => Energetics <=

    Nuclear Repulsion Energy =              8.5401431157547130
    One-Electron Energy =                -306.9380526452739559
    Two-Electron Energy =                  99.6005682071276368
    Total Energy =                       -198.7973413223916168
 Dipole X            :        -94.8529028           85.3615671           -9.4913356
 Dipole Y            :          0.0000000            0.0000000            0.0000000
 Dipole Z            :         -0.0000000            0.0000000           -0.0000000
 Magnitude           :                                                    9.4913356

    SAPT Results
  --------------------------------------------------------------------------------------------------------
    Electrostatics                -33.38291979 [mEh]     -20.94809843 [kcal/mol]     -87.64684385 [kJ/mol]
      Elst10,r                    -34.92573984 [mEh]     -21.91623263 [kcal/mol]     -91.69751732 [kJ/mol]
      Elst12,r                      1.54282005 [mEh]       0.96813419 [kcal/mol]       4.05067347 [kJ/mol]

    Exchange                        3.57215955 [mEh]       2.24156396 [kcal/mol]       9.37870360 [kJ/mol]
      Exch10                        2.33314754 [mEh]       1.46407218 [kcal/mol]       6.12567802 [kJ/mol]
      Exch10(S^2)                   2.33294576 [mEh]       1.46394556 [kcal/mol]       6.12514824 [kJ/mol]
      Exch11(S^2)                   0.05651558 [mEh]       0.03546406 [kcal/mol]       0.14838164 [kJ/mol]
      Exch12(S^2)                   1.18249643 [mEh]       0.74202771 [kcal/mol]       3.10464395 [kJ/mol]

    Induction                      -6.72210733 [mEh]      -4.21818604 [kcal/mol]     -17.64889037 [kJ/mol]
      Ind20,r                      -6.17896681 [mEh]      -3.87736021 [kcal/mol]     -16.22287513 [kJ/mol]
      Ind22                        -1.00399303 [mEh]      -0.63001514 [kcal/mol]      -2.63598334 [kJ/mol]
      Exch-Ind20,r                  0.76926054 [mEh]       0.48271828 [kcal/mol]       2.01969328 [kJ/mol]
      Exch-Ind22                    0.12499375 [mEh]       0.07843476 [kcal/mol]       0.32817104 [kJ/mol]
      delta HF,r (2)               -0.43340178 [mEh]      -0.27196372 [kcal/mol]      -1.13789622 [kJ/mol]

    Dispersion                     -2.66295373 [mEh]      -1.67102869 [kcal/mol]      -6.99158404 [kJ/mol]
      Disp20                       -2.05950203 [mEh]      -1.29235704 [kcal/mol]      -5.40722184 [kJ/mol]
      Disp21                       -0.07983384 [mEh]      -0.05009649 [kcal/mol]      -0.20960373 [kJ/mol]
      Disp22 (SDQ)                 -0.29402635 [mEh]      -0.18450432 [kcal/mol]      -0.77196607 [kJ/mol]
      Disp22 (T)                   -0.43279592 [mEh]      -0.27158354 [kcal/mol]      -1.13630553 [kJ/mol]
      Est. Disp22 (T)              -0.50049563 [mEh]      -0.31406575 [kcal/mol]      -1.31405109 [kJ/mol]
      Exch-Disp20                   0.27090413 [mEh]       0.16999491 [kcal/mol]       0.71125869 [kJ/mol]

  Total HF                        -38.43570035 [mEh]     -24.11876610 [kcal/mol]    -100.91291738 [kJ/mol]
  Total SAPT0                     -40.22429826 [mEh]     -25.24112823 [kcal/mol]    -105.60888052 [kJ/mol]
  Total SAPT2                     -38.32146548 [mEh]     -24.04708264 [kcal/mol]    -100.61299376 [kJ/mol]
  Total SAPT2+                    -39.19582130 [mEh]     -24.59574920 [kcal/mol]    -102.90861465 [kJ/mol]

  Special recipe for scaled SAPT0 (see Manual):
    Electrostatics sSAPT0         -34.92573984 [mEh]     -21.91623263 [kcal/mol]     -91.69751732 [kJ/mol]
    Exchange sSAPT0                 2.33314754 [mEh]       1.46407218 [kcal/mol]       6.12567802 [kJ/mol]
    Induction sSAPT0               -5.84290843 [mEh]      -3.66648039 [kcal/mol]     -15.34055397 [kJ/mol]
    Dispersion sSAPT0              -1.78852760 [mEh]      -1.12231802 [kcal/mol]      -4.69577858 [kJ/mol]
  Total sSAPT0                    -40.22402833 [mEh]     -25.24095885 [kcal/mol]    -105.60817184 [kJ/mol]
  --------------------------------------------------------------------------------------------------------

*** Psi4 exiting successfully. Buy a developer a beer!
