                               Psi4 1.9 release

  ==> Input File <==

--------------------------------------------------------------------------
MEMORY 60 GB

molecule dimer {
0 1
O      0.000000     0.000000     0.000000
H      0.588538     0.756918     0.000000
H      0.588538    -0.756918     0.000000
--
-2 1
F      2.123442     2.123442     0.000000
F      2.123442    -2.123442     0.000000

units ang
no_reorient
no_com
symmetry c1
}

set {
basis        aug-cc-pVTZ
scf_type     df
}

energy("sapt2+")
--------------------------------------------------------------------------

  //              Dimer HF             //
    Molecular point group: c1
  Charge       = -2
  Multiplicity = 1
  Basis Set: AUG-CC-PVTZ
    Blend: AUG-CC-PVTZ
  Basis Set: (AUG-CC-PVTZ AUX)
    Blend: AUG-CC-PVTZ-JKFIT
  @DF-RHF Final Energy:  -274.89459763229559
    Total Energy =                       -274.8945976322955858
 Dipole X            :        -81.1924989           74.4533801           -6.7391188
 Dipole Y            :         -0.0000000            0.0000000           -0.0000000
 Dipole Z            :          0.0000000            0.0000000            0.0000000
 Magnitude           :                                                    6.7391188
  //            Monomer A HF           //
    Molecular point group: c1
  Multiplicity = 1
  Basis Set: AUG-CC-PVTZ
    Blend: AUG-CC-PVTZ
  Basis Set: (AUG-CC-PVTZ AUX)
    Blend: AUG-CC-PVTZ-JKFIT
  @DF-RHF Final Energy:   -76.06052005979754
    Total Energy =                        -76.0605200597975539
  //            Monomer B HF           //
    Molecular point group: c1

    Geometry (in Angstrom), charge = -2, multiplicity = 1:

       Center              X                  Y                   Z               Mass
    ------------   -----------------  -----------------  -----------------  -----------------
      Gh(O)           0.000000000000     0.000000000000     0.000000000000    15.994914619570
      Gh(H)           0.588538000000     0.756918000000     0.000000000000     1.007825032230
      Gh(H)           0.588538000000    -0.756918000000     0.000000000000     1.007825032230
         F            2.123442000000     2.123442000000     0.000000000000    18.998403162730
         F            2.123442000000    -2.123442000000     0.000000000000    18.998403162730

  Charge       = -2
  Multiplicity = 1
  Basis Set: AUG-CC-PVTZ
    Blend: AUG-CC-PVTZ
  Basis Set: (AUG-CC-PVTZ AUX)
    Blend: AUG-CC-PVTZ-JKFIT

    Orbital Energies [Eh]
    ---------------------

    Doubly Occupied:

       1A    -25.713413     2A    -25.713412     3A     -0.955122
       4A     -0.955024     5A     -0.061327     6A     -0.060315
       7A     -0.060248     8A     -0.059682     9A     -0.059623
      10A     -0.057830

  @DF-RHF Final Energy:  -198.77939231185960

   => Energetics <=

    Nuclear Repulsion Energy =             10.0928949470411720
    One-Electron Energy =                -310.3525803569463051
    Two-Electron Energy =                 101.4802930980455500
    Total Energy =                       -198.7793923118596240
 Dipole X            :        -80.2650471           72.2290288           -8.0360183
 Dipole Y            :          0.0000000            0.0000000            0.0000000
 Dipole Z            :         -0.0000000            0.0000000           -0.0000000
 Magnitude           :                                                    8.0360183

    SAPT Results
  --------------------------------------------------------------------------------------------------------
    Electrostatics                -53.34435641 [mEh]     -33.47408902 [kcal/mol]    -140.05558846 [kJ/mol]
      Elst10,r                    -55.18100203 [mEh]     -34.62660154 [kcal/mol]    -144.87770086 [kJ/mol]
      Elst12,r                      1.83664561 [mEh]       1.15251252 [kcal/mol]       4.82211240 [kJ/mol]

    Exchange                       19.12277476 [mEh]      11.99972233 [kcal/mol]      50.20683822 [kJ/mol]
      Exch10                       14.18637359 [mEh]       8.90208382 [kcal/mol]      37.24631872 [kJ/mol]
      Exch10(S^2)                  14.16155804 [mEh]       8.88651183 [kcal/mol]      37.18116551 [kJ/mol]
      Exch11(S^2)                   0.24565090 [mEh]       0.15414827 [kcal/mol]       0.64495636 [kJ/mol]
      Exch12(S^2)                   4.69075027 [mEh]       2.94349024 [kcal/mol]      12.31556315 [kJ/mol]

    Induction                     -15.74635739 [mEh]      -9.88098844 [kcal/mol]     -41.34205564 [kJ/mol]
      Ind20,r                     -15.24539276 [mEh]      -9.56662839 [kcal/mol]     -40.02677317 [kJ/mol]
      Ind22                        -2.84272783 [mEh]      -1.78383865 [kcal/mol]      -7.46358090 [kJ/mol]
      Exch-Ind20,r                  4.22065181 [mEh]       2.64849899 [kcal/mol]      11.08131979 [kJ/mol]
      Exch-Ind22                    0.78700264 [mEh]       0.49385161 [kcal/mol]       2.06627515 [kJ/mol]
      delta HF,r (2)               -2.66589125 [mEh]      -1.67287201 [kcal/mol]      -6.99929651 [kJ/mol]

    Dispersion                     -7.33834681 [mEh]      -4.60488214 [kcal/mol]     -19.26682689 [kJ/mol]
      Disp20                       -6.41703621 [mEh]      -4.02675101 [kcal/mol]     -16.84792625 [kJ/mol]
      Disp21                       -0.08631002 [mEh]      -0.05416036 [kcal/mol]      -0.22660693 [kJ/mol]
      Disp22 (SDQ)                 -0.72482795 [mEh]      -0.45483640 [kcal/mol]      -1.90303551 [kJ/mol]
      Disp22 (T)                   -1.20726491 [mEh]      -0.75757017 [kcal/mol]      -3.16967358 [kJ/mol]
      Est. Disp22 (T)              -1.43014871 [mEh]      -0.89743186 [kcal/mol]      -3.75485491 [kJ/mol]
      Exch-Disp20                   1.31997608 [mEh]       0.82829749 [kcal/mol]       3.46559672 [kJ/mol]

  Total HF                        -54.68526064 [mEh]     -34.31551913 [kcal/mol]    -143.57613203 [kJ/mol]
  Total SAPT0                     -59.78232077 [mEh]     -37.51397265 [kcal/mol]    -156.95846156 [kJ/mol]
  Total SAPT2                     -55.06499917 [mEh]     -34.55380865 [kcal/mol]    -144.57313540 [kJ/mol]
  Total SAPT2+                    -57.30628585 [mEh]     -35.96023728 [kcal/mol]    -150.45763276 [kJ/mol]

  Special recipe for scaled SAPT0 (see Manual):
    Electrostatics sSAPT0         -55.18100203 [mEh]     -34.62660154 [kcal/mol]    -144.87770086 [kJ/mol]
    Exchange sSAPT0                14.18637359 [mEh]       8.90208382 [kcal/mol]      37.24631872 [kJ/mol]
    Induction sSAPT0              -13.66840553 [mEh]      -8.57705396 [kcal/mol]     -35.88639377 [kJ/mol]
    Dispersion sSAPT0              -5.09010891 [mEh]      -3.19409157 [kcal/mol]     -13.36407911 [kJ/mol]
  Total sSAPT0                    -59.75314288 [mEh]     -37.49566325 [kcal/mol]    -156.88185502 [kJ/mol]
  --------------------------------------------------------------------------------------------------------

*** Psi4 exiting successfully. Buy a developer a beer!
