                               Psi4 1.9 release

  ==> Input File <==

--------------------------------------------------------------------------
MEMORY 60 GB

molecule dimer {
0 1
O      0.000000     0.000000     0.000000
H      0.588538     0.756918     0.000000
H      0.588538    -0.756918     0.000000
--
-2 1
Cl     2.496794     2.496794     0.000000
Cl     2.496794    -2.496794     0.000000

units ang
no_reorient
no_com
symmetry c1
}

set {
basis        aug-cc-pVTZ
scf_type     df
}

energy("sapt2+")
--------------------------------------------------------------------------

  //              Dimer HF             //
    Molecular point group: c1
  Charge       = -2
  Multiplicity = 1
  Basis Set: AUG-CC-PVTZ
    Blend: AUG-CC-PVTZ
  Basis Set: (AUG-CC-PVTZ AUX)
    Blend: AUG-CC-PVTZ-JKFIT
  @DF-RHF Final Energy:  -995.13689560440400
    Total Energy =                       -995.1368956044041170
 Dipole X            :       -170.8822066          162.6450842           -8.2371224
 Dipole Y            :         -0.0000000            0.0000000           -0.0000000
 Dipole Z            :         -0.0000000            0.0000000           -0.0000000
 Magnitude           :                                                    8.2371224
  //            Monomer A HF           //
    Molecular point group: c1
  Multiplicity = 1
  Basis Set: AUG-CC-PVTZ
    Blend: AUG-CC-PVTZ
  Basis Set: (AUG-CC-PVTZ AUX)
    Blend: AUG-CC-PVTZ-JKFIT
  @DF-RHF Final Energy:   -76.06051792074177
    Total Energy =                        -76.0605179207417734
  //            Monomer B HF           //
    Molecular point group: c1

    Geometry (in Angstrom), charge = -2, multiplicity = 1:

       Center              X                  Y                   Z               Mass
    ------------   -----------------  -----------------  -----------------  -----------------
      Gh(O)           0.000000000000     0.000000000000     0.000000000000    15.994914619570
      Gh(H)           0.588538000000     0.756918000000     0.000000000000     1.007825032230
      Gh(H)           0.588538000000    -0.756918000000     0.000000000000     1.007825032230
         CL           2.496794000000     2.496794000000     0.000000000000    34.968852682000
         CL           2.496794000000    -2.496794000000     0.000000000000    34.968852682000

  Charge       = -2
  Multiplicity = 1
  Basis Set: AUG-CC-PVTZ
    Blend: AUG-CC-PVTZ
  Basis Set: (AUG-CC-PVTZ AUX)
    Blend: AUG-CC-PVTZ-JKFIT

    Orbital Energies [Eh]
    ---------------------

    Doubly Occupied:

       1A   -104.406040     2A   -104.406040     3A    -10.129494
       4A    -10.129494     5A     -7.595541     6A     -7.595541
       7A     -7.595527     8A     -7.595527     9A     -7.595479
      10A     -7.595479    11A     -0.632696    12A     -0.632433
      13A     -0.050797    14A     -0.050301    15A     -0.050263
      16A     -0.049352    17A     -0.049330    18A     -0.045278

  @DF-RHF Final Energy:  -919.04458798287897

   => Energetics <=

    Nuclear Repulsion Energy =             30.6257171964587371
    One-Electron Energy =               -1346.9313755726841464
    Two-Electron Energy =                 397.2610703933465288
    Total Energy =                       -919.0445879828789657
 Dipole X            :       -169.8670036          160.4207330           -9.4462706
 Dipole Y            :         -0.0000000            0.0000000           -0.0000000
 Dipole Z            :         -0.0000000            0.0000000           -0.0000000
 Magnitude           :                                                    9.4462706

    SAPT Results
  --------------------------------------------------------------------------------------------------------
    Electrostatics                -33.89940907 [mEh]     -21.27220034 [kcal/mol]     -89.00288624 [kJ/mol]
      Elst10,r                    -34.96287716 [mEh]     -21.93953665 [kcal/mol]     -91.79502135 [kJ/mol]
      Elst12,r                      1.06346810 [mEh]       0.66733631 [kcal/mol]       2.79213511 [kJ/mol]

    Exchange                       12.31038357 [mEh]       7.72488231 [kcal/mol]      32.32090760 [kJ/mol]
      Exch10                       10.74690701 [mEh]       6.74378596 [kcal/mol]      28.21600046 [kJ/mol]
      Exch10(S^2)                  10.73084736 [mEh]       6.73370838 [kcal/mol]      28.17383585 [kJ/mol]
      Exch11(S^2)                   0.50404996 [mEh]       0.31629612 [kcal/mol]       1.32338298 [kJ/mol]
      Exch12(S^2)                   1.05942660 [mEh]       0.66480023 [kcal/mol]       2.78152416 [kJ/mol]

    Induction                      -8.20478767 [mEh]      -5.14858199 [kcal/mol]     -21.54166705 [kJ/mol]
      Ind20,r                     -10.18014030 [mEh]      -6.38813448 [kcal/mol]     -26.72795466 [kJ/mol]
      Ind22                        -1.13553667 [mEh]      -0.71256002 [kcal/mol]      -2.98135112 [kJ/mol]
      Exch-Ind20,r                  4.52268393 [mEh]       2.83802701 [kcal/mol]      11.87430503 [kJ/mol]
      Exch-Ind22                    0.50447964 [mEh]       0.31656575 [kcal/mol]       1.32451110 [kJ/mol]
      delta HF,r (2)               -1.91627426 [mEh]      -1.20248025 [kcal/mol]      -5.03117739 [kJ/mol]

    Dispersion                     -6.23923601 [mEh]      -3.91517970 [kcal/mol]     -16.38111188 [kJ/mol]
      Disp20                       -6.47389834 [mEh]      -4.06243254 [kcal/mol]     -16.99721775 [kJ/mol]
      Disp21                        0.32517332 [mEh]       0.20404934 [kcal/mol]       0.85374243 [kJ/mol]
      Disp22 (SDQ)                  0.00026169 [mEh]       0.00016421 [kcal/mol]       0.00068706 [kJ/mol]
      Disp22 (T)                   -1.06490908 [mEh]      -0.66824054 [kcal/mol]      -2.79591842 [kJ/mol]
      Est. Disp22 (T)              -1.21710969 [mEh]      -0.76374786 [kcal/mol]      -3.19552104 [kJ/mol]
      Exch-Disp20                   1.12633701 [mEh]       0.70678715 [kcal/mol]       2.95719742 [kJ/mol]

  Total HF                        -31.78970078 [mEh]     -19.94833841 [kcal/mol]     -83.46384791 [kJ/mol]
  Total SAPT0                     -37.13726211 [mEh]     -23.30398380 [kcal/mol]     -97.50386824 [kJ/mol]
  Total SAPT2                     -35.14137449 [mEh]     -22.05154541 [kcal/mol]     -92.26366601 [kJ/mol]
  Total SAPT2+                    -36.03304917 [mEh]     -22.61107972 [kcal/mol]     -94.60475756 [kJ/mol]

  Special recipe for scaled SAPT0 (see Manual):
    Electrostatics sSAPT0         -34.96287716 [mEh]     -21.93953665 [kcal/mol]     -91.79502135 [kJ/mol]
    Exchange sSAPT0                10.74690701 [mEh]       6.74378596 [kcal/mol]      28.21600046 [kJ/mol]
    Induction sSAPT0               -7.55339445 [mEh]      -4.73982657 [kcal/mol]     -19.83143439 [kJ/mol]
    Dispersion sSAPT0              -5.34249677 [mEh]      -3.35246734 [kcal/mol]     -14.02672333 [kJ/mol]
  Total sSAPT0                    -37.11186137 [mEh]     -23.28804460 [kcal/mol]     -97.43717861 [kJ/mol]
  --------------------------------------------------------------------------------------------------------

*** Psi4 exiting successfully. Buy a developer a beer!
