                               Psi4 1.9 release

  ==> Input File <==

--------------------------------------------------------------------------
MEMORY 60 GB

molecule dimer {
0 1
O      0.000000     0.000000     0.000000
H      0.588538     0.756918     0.000000
H      0.588538    -0.756918     0.000000
--
-2 1
Cl     3.404719     3.404719     0.000000
Cl     3.404719    -3.404719     0.000000

units ang
no_reorient
no_com
symmetry c1
}

set {
basis        aug-cc-pVTZ
scf_type     df
}

energy("sapt2+")
--------------------------------------------------------------------------

  //              Dimer HF             //
    Molecular point group: c1
  Charge       = -2
  Multiplicity = 1
  Basis Set: AUG-CC-PVTZ
    Blend: AUG-CC-PVTZ
  Basis Set: (AUG-CC-PVTZ AUX)
    Blend: AUG-CC-PVTZ-JKFIT
  @DF-RHF Final Energy:  -995.14856309575953
    Total Energy =                       -995.1485630957595276
 Dipole X            :       -232.8515733          220.9798904          -11.8716830
 Dipole Y            :         -0.0000000            0.0000000           -0.0000000
 Dipole Z            :         -0.0000000            0.0000000           -0.0000000
 Magnitude           :                                                   11.8716830
  //            Monomer A HF           //
    Molecular point group: c1
  Multiplicity = 1
  Basis Set: AUG-CC-PVTZ
    Blend: AUG-CC-PVTZ
  Basis Set: (AUG-CC-PVTZ AUX)
    Blend: AUG-CC-PVTZ-JKFIT
  @DF-RHF Final Energy:   -76.06049315277153
    Total Energy =                        -76.0604931527715280
  //            Monomer B HF           //
    Molecular point group: c1

    Geometry (in Angstrom), charge = -2, multiplicity = 1:

       Center              X                  Y                   Z               Mass
    ------------   -----------------  -----------------  -----------------  -----------------
      Gh(O)           0.000000000000     0.000000000000     0.000000000000    15.994914619570
      Gh(H)           0.588538000000     0.756918000000     0.000000000000     1.007825032230
      Gh(H)           0.588538000000    -0.756918000000     0.000000000000     1.007825032230
         CL           3.404719000000     3.404719000000     0.000000000000    34.968852682000
         CL           3.404719000000    -3.404719000000     0.000000000000    34.968852682000

  Charge       = -2
  Multiplicity = 1
  Basis Set: AUG-CC-PVTZ
    Blend: AUG-CC-PVTZ
  Basis Set: (AUG-CC-PVTZ AUX)
    Blend: AUG-CC-PVTZ-JKFIT

    Orbital Energies [Eh]
    ---------------------

    Doubly Occupied:

       1A   -104.429901     2A   -104.429901     3A    -10.153599
       4A    -10.153599     5A     -7.619636     6A     -7.619636
       7A     -7.619633     8A     -7.619633     9A     -7.619610
      10A     -7.619609    11A     -0.657181    12A     -0.657174
      13A     -0.074237    14A     -0.074227    15A     -0.074160
      16A     -0.074153    17A     -0.073782    18A     -0.073212

  @DF-RHF Final Energy:  -919.07026550600972

   => Energetics <=

    Nuclear Repulsion Energy =             22.4588598770750245
    One-Electron Energy =               -1329.7724867147248915
    Two-Electron Energy =                 388.2433613316402443
    Total Energy =                       -919.0702655060097186
 Dipole X            :       -231.6299110          218.7555391          -12.8743719
 Dipole Y            :          0.0000000            0.0000000            0.0000000
 Dipole Z            :         -0.0000000            0.0000000           -0.0000000
 Magnitude           :                                                   12.8743719

    SAPT Results
  --------------------------------------------------------------------------------------------------------
    Electrostatics                -15.68435608 [mEh]      -9.84208203 [kcal/mol]     -41.17927122 [kJ/mol]
      Elst10,r                    -16.52050205 [mEh]     -10.36677155 [kcal/mol]     -43.37457215 [kJ/mol]
      Elst12,r                      0.83614597 [mEh]       0.52468951 [kcal/mol]       2.19530093 [kJ/mol]

    Exchange                        0.35302497 [mEh]       0.22152651 [kcal/mol]       0.92686693 [kJ/mol]
      Exch10                        0.28172173 [mEh]       0.17678306 [kcal/mol]       0.73966031 [kJ/mol]
      Exch10(S^2)                   0.28172225 [mEh]       0.17678338 [kcal/mol]       0.73966167 [kJ/mol]
      Exch11(S^2)                   0.01486733 [mEh]       0.00932939 [kcal/mol]       0.03903418 [kJ/mol]
      Exch12(S^2)                   0.05643590 [mEh]       0.03541406 [kcal/mol]       0.14817244 [kJ/mol]

    Induction                      -1.72223546 [mEh]      -1.08071907 [kcal/mol]      -4.52172859 [kJ/mol]
      Ind20,r                      -1.63652825 [mEh]      -1.02693698 [kcal/mol]      -4.29670432 [kJ/mol]
      Ind22                        -0.17167611 [mEh]      -0.10772839 [kcal/mol]      -0.45073557 [kJ/mol]
      Exch-Ind20,r                  0.14391741 [mEh]       0.09030954 [kcal/mol]       0.37785510 [kJ/mol]
      Exch-Ind22                    0.01509731 [mEh]       0.00947371 [kcal/mol]       0.03963799 [kJ/mol]
      delta HF,r (2)               -0.07304582 [mEh]      -0.04583695 [kcal/mol]      -0.19178178 [kJ/mol]

    Dispersion                     -0.80524924 [mEh]      -0.50530153 [kcal/mol]      -2.11418160 [kJ/mol]
      Disp20                       -0.72768624 [mEh]      -0.45663001 [kcal/mol]      -1.91053995 [kJ/mol]
      Disp21                        0.04187803 [mEh]       0.02627886 [kcal/mol]       0.10995075 [kJ/mol]
      Disp22 (SDQ)                 -0.00898418 [mEh]      -0.00563766 [kcal/mol]      -0.02358797 [kJ/mol]
      Disp22 (T)                   -0.13619926 [mEh]      -0.08546633 [kcal/mol]      -0.35759112 [kJ/mol]
      Est. Disp22 (T)              -0.15157241 [mEh]      -0.09511312 [kcal/mol]      -0.39795331 [kJ/mol]
      Exch-Disp20                   0.04111556 [mEh]       0.02580040 [kcal/mol]       0.10794889 [kJ/mol]

  Total HF                        -17.80443698 [mEh]     -11.17245288 [kcal/mol]     -46.74554285 [kJ/mol]
  Total SAPT0                     -18.49100765 [mEh]     -11.60328248 [kcal/mol]     -48.54813391 [kJ/mol]
  Total SAPT2                     -17.74013725 [mEh]     -11.13210419 [kcal/mol]     -46.57672394 [kJ/mol]
  Total SAPT2+                    -17.85881582 [mEh]     -11.20657612 [kcal/mol]     -46.88831447 [kJ/mol]

  Special recipe for scaled SAPT0 (see Manual):
    Electrostatics sSAPT0         -16.52050205 [mEh]     -10.36677155 [kcal/mol]     -43.37457215 [kJ/mol]
    Exchange sSAPT0                 0.28172173 [mEh]       0.17678306 [kcal/mol]       0.73966031 [kJ/mol]
    Induction sSAPT0               -1.56565746 [mEh]      -0.98246489 [kcal/mol]      -4.11063309 [kJ/mol]
    Dispersion sSAPT0              -0.68657090 [mEh]      -0.43082975 [kcal/mol]      -1.80259166 [kJ/mol]
  Total sSAPT0                    -18.49100867 [mEh]     -11.60328312 [kcal/mol]     -48.54813659 [kJ/mol]
  --------------------------------------------------------------------------------------------------------

*** Psi4 exiting successfully. Buy a developer a beer!
