                               Psi4 1.9 release

  ==> Input File <==

--------------------------------------------------------------------------
MEMORY 60 GB

molecule dimer {
0 1
O      0.000000     0.000000     0.000000
H      0.588538     0.756918     0.000000
H      0.588538    -0.756918     0.000000
--
-2 1
Cl     2.950757     2.950757     0.000000
Cl     2.950757    -2.950757     0.000000

units ang
no_reorient
no_com
symmetry c1
}

set {
basis        aug-cc-pVTZ
scf_type     df
}

energy("sapt2+")
--------------------------------------------------------------------------

  //              Dimer HF             //
    Molecular point group: c1
  Charge       = -2
  Multiplicity = 1
  Basis Set: AUG-CC-PVTZ
    Blend: AUG-CC-PVTZ
  Basis Set: (AUG-CC-PVTZ AUX)
    Blend: AUG-CC-PVTZ-JKFIT
  @DF-RHF Final Energy:  -995.14396940000370
    Total Energy =                       -995.1439694000036980
 Dipole X            :       -201.8836979          191.8125194          -10.0711785
 Dipole Y            :          0.0000000            0.0000000            0.0000000
 Dipole Z            :         -0.0000000            0.0000000           -0.0000000
 Magnitude           :                                                   10.0711785
  //            Monomer A HF           //
    Molecular point group: c1
  Multiplicity = 1
  Basis Set: AUG-CC-PVTZ
    Blend: AUG-CC-PVTZ
  Basis Set: (AUG-CC-PVTZ AUX)
    Blend: AUG-CC-PVTZ-JKFIT
  @DF-RHF Final Energy:   -76.06049720410134
    Total Energy =                        -76.0604972041013383
  //            Monomer B HF           //
    Molecular point group: c1

    Geometry (in Angstrom), charge = -2, multiplicity = 1:

       Center              X                  Y                   Z               Mass
    ------------   -----------------  -----------------  -----------------  -----------------
      Gh(O)           0.000000000000     0.000000000000     0.000000000000    15.994914619570
      Gh(H)           0.588538000000     0.756918000000     0.000000000000     1.007825032230
      Gh(H)           0.588538000000    -0.756918000000     0.000000000000     1.007825032230
         CL           2.950757000000     2.950757000000     0.000000000000    34.968852682000
         CL           2.950757000000    -2.950757000000     0.000000000000    34.968852682000

  Charge       = -2
  Multiplicity = 1
  Basis Set: AUG-CC-PVTZ
    Blend: AUG-CC-PVTZ
  Basis Set: (AUG-CC-PVTZ AUX)
    Blend: AUG-CC-PVTZ-JKFIT

    Orbital Energies [Eh]
    ---------------------

    Doubly Occupied:

       1A   -104.419364     2A   -104.419364     3A    -10.142977
       4A    -10.142976     5A     -7.609016     6A     -7.609016
       7A     -7.609010     8A     -7.609010     9A     -7.608977
      10A     -7.608977    11A     -0.646403    12A     -0.646362
      13A     -0.063626    14A     -0.063607    15A     -0.063363
      16A     -0.063352    17A     -0.063272    18A     -0.061532

  @DF-RHF Final Energy:  -919.05914035369881

   => Energetics <=

    Nuclear Repulsion Energy =             25.9140644051052007
    One-Electron Energy =               -1337.0459920534365210
    Two-Electron Energy =                 392.0727872946325192
    Total Energy =                       -919.0591403536989219
 Dipole X            :       -200.7478769          189.5881682          -11.1597088
 Dipole Y            :          0.0000000            0.0000000            0.0000000
 Dipole Z            :         -0.0000000            0.0000000           -0.0000000
 Magnitude           :                                                   11.1597088

    SAPT Results
  --------------------------------------------------------------------------------------------------------
    Electrostatics                -21.85536516 [mEh]     -13.71444869 [kcal/mol]     -57.38125333 [kJ/mol]
      Elst10,r                    -22.89485854 [mEh]     -14.36674064 [kcal/mol]     -60.11044282 [kJ/mol]
      Elst12,r                      1.03949338 [mEh]       0.65229194 [kcal/mol]       2.72918949 [kJ/mol]

    Exchange                        2.00283903 [mEh]       1.25680046 [kcal/mol]       5.25845314 [kJ/mol]
      Exch10                        1.67101302 [mEh]       1.04857650 [kcal/mol]       4.38724408 [kJ/mol]
      Exch10(S^2)                   1.67084229 [mEh]       1.04846936 [kcal/mol]       4.38679582 [kJ/mol]
      Exch11(S^2)                   0.08759662 [mEh]       0.05496771 [kcal/mol]       0.22998489 [kJ/mol]
      Exch12(S^2)                   0.24422939 [mEh]       0.15325625 [kcal/mol]       0.64122417 [kJ/mol]

    Induction                      -3.40353097 [mEh]      -2.13574793 [kcal/mol]      -8.93596933 [kJ/mol]
      Ind20,r                      -3.53334717 [mEh]      -2.21720882 [kcal/mol]      -9.27680172 [kJ/mol]
      Ind22                        -0.37830035 [mEh]      -0.23738705 [kcal/mol]      -0.99322742 [kJ/mol]
      Exch-Ind20,r                  0.77303978 [mEh]       0.48508979 [kcal/mol]       2.02961567 [kJ/mol]
      Exch-Ind22                    0.08276606 [mEh]       0.05193649 [kcal/mol]       0.21730226 [kJ/mol]
      delta HF,r (2)               -0.34768929 [mEh]      -0.21817832 [kcal/mol]      -0.91285811 [kJ/mol]

    Dispersion                     -2.16454485 [mEh]      -1.35827240 [kcal/mol]      -5.68301172 [kJ/mol]
      Disp20                       -2.04385340 [mEh]      -1.28253737 [kcal/mol]      -5.36613637 [kJ/mol]
      Disp21                        0.09373829 [mEh]       0.05882166 [kcal/mol]       0.24610984 [kJ/mol]
      Disp22 (SDQ)                 -0.01726859 [mEh]      -0.01083620 [kcal/mol]      -0.04533867 [kJ/mol]
      Disp22 (T)                   -0.36290085 [mEh]      -0.22772372 [kcal/mol]      -0.95279606 [kJ/mol]
      Est. Disp22 (T)              -0.41223683 [mEh]      -0.25868252 [kcal/mol]      -1.08232766 [kJ/mol]
      Exch-Disp20                   0.21507569 [mEh]       0.13496203 [kcal/mol]       0.56468114 [kJ/mol]

  Total HF                        -24.33184220 [mEh]     -15.26846150 [kcal/mol]     -63.88324290 [kJ/mol]
  Total SAPT0                     -26.16061992 [mEh]     -16.41603684 [kcal/mol]     -68.68469814 [kJ/mol]
  Total SAPT2                     -25.08483482 [mEh]     -15.74097150 [kcal/mol]     -65.86022475 [kJ/mol]
  Total SAPT2+                    -25.42060196 [mEh]     -15.95166856 [kcal/mol]     -66.74178124 [kJ/mol]

  Special recipe for scaled SAPT0 (see Manual):
    Electrostatics sSAPT0         -22.89485854 [mEh]     -14.36674064 [kcal/mol]     -60.11044282 [kJ/mol]
    Exchange sSAPT0                 1.67101302 [mEh]       1.04857650 [kcal/mol]       4.38724408 [kJ/mol]
    Induction sSAPT0               -3.10775968 [mEh]      -1.95014864 [kcal/mol]      -8.15942191 [kJ/mol]
    Dispersion sSAPT0              -1.82871178 [mEh]      -1.14753397 [kcal/mol]      -4.80128211 [kJ/mol]
  Total sSAPT0                    -26.16031698 [mEh]     -16.41584674 [kcal/mol]     -68.68390277 [kJ/mol]
  --------------------------------------------------------------------------------------------------------

*** Psi4 exiting successfully. Buy a developer a beer!
