                               Psi4 1.9 release

  ==> Input File <==

--------------------------------------------------------------------------
MEMORY 60 GB

molecule dimer {
0 1
O      0.000000     0.000000     0.000000
H      0.588538     0.756918     0.000000
H      0.588538    -0.756918     0.000000
--
-2 1
Cl     2.269813     2.269813     0.000000
Cl     2.269813    -2.269813     0.000000

units ang
no_reorient
no_com
symmetry c1
}

set {
basis        aug-cc-pVTZ
scf_type     df
}

energy("sapt2+")
--------------------------------------------------------------------------

  //              Dimer HF             //
    Molecular point group: c1
  Charge       = -2
  Multiplicity = 1
  Basis Set: AUG-CC-PVTZ
    Blend: AUG-CC-PVTZ
  Basis Set: (AUG-CC-PVTZ AUX)
    Blend: AUG-CC-PVTZ-JKFIT
  @DF-RHF Final Energy:  -995.12775559357169
    Total Energy =                       -995.1277555935716919
 Dipole X            :       -155.3663858          148.0613988           -7.3049871
 Dipole Y            :          0.0000000            0.0000000            0.0000000
 Dipole Z            :          0.0000000            0.0000000            0.0000000
 Magnitude           :                                                    7.3049871
  //            Monomer A HF           //
    Molecular point group: c1
  Multiplicity = 1
  Basis Set: AUG-CC-PVTZ
    Blend: AUG-CC-PVTZ
  Basis Set: (AUG-CC-PVTZ AUX)
    Blend: AUG-CC-PVTZ-JKFIT
  @DF-RHF Final Energy:   -76.06053267902311
    Total Energy =                        -76.0605326790231118
  //            Monomer B HF           //
    Molecular point group: c1

    Geometry (in Angstrom), charge = -2, multiplicity = 1:

       Center              X                  Y                   Z               Mass
    ------------   -----------------  -----------------  -----------------  -----------------
      Gh(O)           0.000000000000     0.000000000000     0.000000000000    15.994914619570
      Gh(H)           0.588538000000     0.756918000000     0.000000000000     1.007825032230
      Gh(H)           0.588538000000    -0.756918000000     0.000000000000     1.007825032230
         CL           2.269813000000     2.269813000000     0.000000000000    34.968852682000
         CL           2.269813000000    -2.269813000000     0.000000000000    34.968852682000

  Charge       = -2
  Multiplicity = 1
  Basis Set: AUG-CC-PVTZ
    Blend: AUG-CC-PVTZ
  Basis Set: (AUG-CC-PVTZ AUX)
    Blend: AUG-CC-PVTZ-JKFIT

    Orbital Energies [Eh]
    ---------------------

    Doubly Occupied:

       1A   -104.398044     2A   -104.398044     3A    -10.121376
       4A    -10.121376     5A     -7.587426     6A     -7.587426
       7A     -7.587407     8A     -7.587406     9A     -7.587348
      10A     -7.587347    11A     -0.624536    12A     -0.623856
      13A     -0.044252    14A     -0.042484    15A     -0.042437
      16A     -0.040640    17A     -0.040614    18A     -0.034253

  @DF-RHF Final Energy:  -919.03551257590982

   => Energetics <=

    Nuclear Repulsion Energy =             33.6882848683195490
    One-Electron Energy =               -1353.3350380691888404
    Two-Electron Energy =                 400.6112406249595779
    Total Energy =                       -919.0355125759098200
 Dipole X            :       -154.4260610          145.8370475           -8.5890135
 Dipole Y            :         -0.0000000            0.0000000           -0.0000000
 Dipole Z            :          0.0000000            0.0000000            0.0000000
 Magnitude           :                                                    8.5890135

    SAPT Results
  --------------------------------------------------------------------------------------------------------
    Electrostatics                -45.63979162 [mEh]     -28.63940162 [kcal/mol]    -119.82725640 [kJ/mol]
      Elst10,r                    -46.37367696 [mEh]     -29.09992163 [kcal/mol]    -121.75407208 [kJ/mol]
      Elst12,r                      0.73388534 [mEh]       0.46052000 [kcal/mol]       1.92681569 [kJ/mol]

    Exchange                       31.27932697 [mEh]      19.62807401 [kcal/mol]      82.12386164 [kJ/mol]
      Exch10                       27.99100124 [mEh]      17.56461846 [kcal/mol]      73.49036363 [kJ/mol]
      Exch10(S^2)                  27.85816775 [mEh]      17.48126418 [kcal/mol]      73.14160934 [kJ/mol]
      Exch11(S^2)                   1.11383254 [mEh]       0.69894047 [kcal/mol]       2.92436692 [kJ/mol]
      Exch12(S^2)                   2.17449319 [mEh]       1.36451508 [kcal/mol]       5.70913109 [kJ/mol]

    Induction                     -14.35094663 [mEh]      -9.00535497 [kcal/mol]     -37.67840518 [kJ/mol]
      Ind20,r                     -20.38568189 [mEh]     -12.79220852 [kcal/mol]     -53.52260044 [kJ/mol]
      Ind22                        -2.38776422 [mEh]      -1.49834467 [kcal/mol]      -6.26907409 [kJ/mol]
      Exch-Ind20,r                 11.64933512 [mEh]       7.31006815 [kcal/mol]      30.58532515 [kJ/mol]
      Exch-Ind22                    1.36448051 [mEh]       0.85622444 [kcal/mol]       3.58244308 [kJ/mol]
      delta HF,r (2)               -4.59131615 [mEh]      -2.88109438 [kcal/mol]     -12.05449888 [kJ/mol]

    Dispersion                    -10.76522970 [mEh]      -6.75528362 [kcal/mol]     -28.26410668 [kJ/mol]
      Disp20                      -11.97217069 [mEh]      -7.51265053 [kcal/mol]     -31.43292983 [kJ/mol]
      Disp21                        0.73472271 [mEh]       0.46104546 [kcal/mol]       1.92901421 [kJ/mol]
      Disp22 (SDQ)                  0.05785937 [mEh]       0.03630730 [kcal/mol]       0.15190976 [kJ/mol]
      Disp22 (T)                   -1.89935433 [mEh]      -1.19186284 [kcal/mol]      -4.98675410 [kJ/mol]
      Est. Disp22 (T)              -2.13349676 [mEh]      -1.33878943 [kcal/mol]      -5.60149496 [kJ/mol]
      Exch-Disp20                   2.54785567 [mEh]       1.59880357 [kcal/mol]       6.68939415 [kJ/mol]

  Total HF                        -31.71033864 [mEh]     -19.89853791 [kcal/mol]     -83.25548263 [kJ/mol]
  Total SAPT0                     -41.13465366 [mEh]     -25.81238487 [kcal/mol]    -107.99901831 [kJ/mol]
  Total SAPT2                     -38.13572630 [mEh]     -23.93052955 [kcal/mol]    -100.12533562 [kJ/mol]
  Total SAPT2+                    -39.47664098 [mEh]     -24.77196621 [kcal/mol]    -103.64590661 [kJ/mol]

  Special recipe for scaled SAPT0 (see Manual):
    Electrostatics sSAPT0         -46.37367696 [mEh]     -29.09992163 [kcal/mol]    -121.75407208 [kJ/mol]
    Exchange sSAPT0                27.99100124 [mEh]      17.56461846 [kcal/mol]      73.49036363 [kJ/mol]
    Induction sSAPT0              -13.16022778 [mEh]      -8.25816761 [kcal/mol]     -34.55217328 [kJ/mol]
    Dispersion sSAPT0              -9.38769486 [mEh]      -5.89086746 [kcal/mol]     -24.64738946 [kJ/mol]
  Total sSAPT0                    -40.93059836 [mEh]     -25.68433824 [kcal/mol]    -107.46327120 [kJ/mol]
  --------------------------------------------------------------------------------------------------------

*** Psi4 exiting successfully. Buy a developer a beer!
