                               Psi4 1.9 release

  ==> Input File <==

--------------------------------------------------------------------------
MEMORY 60 GB

molecule dimer {
0 1
O      0.000000     0.000000     0.000000
H      0.588538     0.756918     0.000000
H      0.588538    -0.756918     0.000000
--
-2 1
Cl     2.723775     2.723775     0.000000
Cl     2.723775    -2.723775     0.000000

units ang
no_reorient
no_com
symmetry c1
}

set {
basis        aug-cc-pVTZ
scf_type     df
}

energy("sapt2+")
--------------------------------------------------------------------------

  //              Dimer HF             //
    Molecular point group: c1
  Charge       = -2
  Multiplicity = 1
  Basis Set: AUG-CC-PVTZ
    Blend: AUG-CC-PVTZ
  Basis Set: (AUG-CC-PVTZ AUX)
    Blend: AUG-CC-PVTZ-JKFIT
  @DF-RHF Final Energy:  -995.14118722749311
    Total Energy =                       -995.1411872274929920
 Dipole X            :       -186.3877050          177.2287697           -9.1589353
 Dipole Y            :         -0.0000000            0.0000000           -0.0000000
 Dipole Z            :         -0.0000000            0.0000000           -0.0000000
 Magnitude           :                                                    9.1589353
  //            Monomer A HF           //
    Molecular point group: c1
  Multiplicity = 1
  Basis Set: AUG-CC-PVTZ
    Blend: AUG-CC-PVTZ
  Basis Set: (AUG-CC-PVTZ AUX)
    Blend: AUG-CC-PVTZ-JKFIT
  @DF-RHF Final Energy:   -76.06050584372323
    Total Energy =                        -76.0605058437232486
  //            Monomer B HF           //
    Molecular point group: c1

    Geometry (in Angstrom), charge = -2, multiplicity = 1:

       Center              X                  Y                   Z               Mass
    ------------   -----------------  -----------------  -----------------  -----------------
      Gh(O)           0.000000000000     0.000000000000     0.000000000000    15.994914619570
      Gh(H)           0.588538000000     0.756918000000     0.000000000000     1.007825032230
      Gh(H)           0.588538000000    -0.756918000000     0.000000000000     1.007825032230
         CL           2.723775000000     2.723775000000     0.000000000000    34.968852682000
         CL           2.723775000000    -2.723775000000     0.000000000000    34.968852682000

  Charge       = -2
  Multiplicity = 1
  Basis Set: AUG-CC-PVTZ
    Blend: AUG-CC-PVTZ
  Basis Set: (AUG-CC-PVTZ AUX)
    Blend: AUG-CC-PVTZ-JKFIT

    Orbital Energies [Eh]
    ---------------------

    Doubly Occupied:

       1A   -104.413110     2A   -104.413110     3A    -10.136652
       4A    -10.136651     5A     -7.602694     6A     -7.602694
       7A     -7.602685     8A     -7.602685     9A     -7.602646
      10A     -7.602646    11A     -0.639966    12A     -0.639862
      13A     -0.057341    14A     -0.057311    15A     -0.057242
      16A     -0.056844    17A     -0.056827    18A     -0.054158

  @DF-RHF Final Energy:  -919.05237856939823

   => Energetics <=

    Nuclear Repulsion Energy =             28.0735769077163155
    One-Electron Energy =               -1341.5816525576942695
    Two-Electron Energy =                 394.4556970805796254
    Total Energy =                       -919.0523785693982290
 Dipole X            :       -185.3074885          175.0044184          -10.3030701
 Dipole Y            :         -0.0000000            0.0000000           -0.0000000
 Dipole Z            :         -0.0000000            0.0000000           -0.0000000
 Magnitude           :                                                   10.3030701

    SAPT Results
  --------------------------------------------------------------------------------------------------------
    Electrostatics                -26.69861353 [mEh]     -16.75363293 [kcal/mol]     -70.09720017 [kJ/mol]
      Elst10,r                    -27.80517093 [mEh]     -17.44800818 [kcal/mol]     -73.00246621 [kJ/mol]
      Elst12,r                      1.10655739 [mEh]       0.69437525 [kcal/mol]       2.90526604 [kJ/mol]

    Exchange                        4.91800116 [mEh]       3.08609232 [kcal/mol]      12.91221026 [kJ/mol]
      Exch10                        4.19515106 [mEh]       2.63249703 [kcal/mol]      11.01436759 [kJ/mol]
      Exch10(S^2)                   4.19337219 [mEh]       2.63138077 [kcal/mol]      11.00969715 [kJ/mol]
      Exch11(S^2)                   0.21268926 [mEh]       0.13346453 [kcal/mol]       0.55841558 [kJ/mol]
      Exch12(S^2)                   0.51016084 [mEh]       0.32013076 [kcal/mol]       1.33942710 [kJ/mol]

    Induction                      -5.11514834 [mEh]      -3.20980404 [kcal/mol]     -13.42982012 [kJ/mol]
      Ind20,r                      -5.72972157 [mEh]      -3.59545457 [kcal/mol]     -15.04338192 [kJ/mol]
      Ind22                        -0.62245559 [mEh]      -0.39059678 [kcal/mol]      -1.63425693 [kJ/mol]
      Exch-Ind20,r                  1.84194238 [mEh]       1.15583630 [kcal/mol]       4.83601906 [kJ/mol]
      Exch-Ind22                    0.20010175 [mEh]       0.12556575 [kcal/mol]       0.52536708 [kJ/mol]
      delta HF,r (2)               -0.80501531 [mEh]      -0.50515474 [kcal/mol]      -2.11356741 [kJ/mol]

    Dispersion                     -3.65163688 [mEh]      -2.29143674 [kcal/mol]      -9.58737130 [kJ/mol]
      Disp20                       -3.58822609 [mEh]      -2.25164587 [kcal/mol]      -9.42088630 [kJ/mol]
      Disp21                        0.16280333 [mEh]       0.10216063 [kcal/mol]       0.42744010 [kJ/mol]
      Disp22 (SDQ)                 -0.01661546 [mEh]      -0.01042636 [kcal/mol]      -0.04362389 [kJ/mol]
      Disp22 (T)                   -0.61738499 [mEh]      -0.38741493 [kcal/mol]      -1.62094408 [kJ/mol]
      Est. Disp22 (T)              -0.70270475 [mEh]      -0.44095389 [kcal/mol]      -1.84495106 [kJ/mol]
      Exch-Disp20                   0.49310609 [mEh]       0.30942874 [kcal/mol]       1.29464986 [kJ/mol]

  Total HF                        -28.30281437 [mEh]     -17.76028415 [kcal/mol]     -74.30902890 [kJ/mol]
  Total SAPT0                     -31.39793437 [mEh]     -19.70250128 [kcal/mol]     -82.43526534 [kJ/mol]
  Total SAPT2                     -29.99088072 [mEh]     -18.81956178 [kcal/mol]     -78.74104647 [kJ/mol]
  Total SAPT2+                    -30.54739759 [mEh]     -19.16878139 [kcal/mol]     -80.20218133 [kJ/mol]

  Special recipe for scaled SAPT0 (see Manual):
    Electrostatics sSAPT0         -27.80517093 [mEh]     -17.44800818 [kcal/mol]     -73.00246621 [kJ/mol]
    Exchange sSAPT0                 4.19515106 [mEh]       2.63249703 [kcal/mol]      11.01436759 [kJ/mol]
    Induction sSAPT0               -4.69044939 [mEh]      -2.94330143 [kcal/mol]     -12.31477319 [kJ/mol]
    Dispersion sSAPT0              -3.09449219 [mEh]      -1.94182317 [kcal/mol]      -8.12458813 [kJ/mol]
  Total sSAPT0                    -31.39496145 [mEh]     -19.70063574 [kcal/mol]     -82.42745993 [kJ/mol]
  --------------------------------------------------------------------------------------------------------

*** Psi4 exiting successfully. Buy a developer a beer!
