                               Psi4 1.9 release

  ==> Input File <==

--------------------------------------------------------------------------
MEMORY 60 GB

molecule dimer {
0 1
O      0.000000     0.000000     0.000000
H      0.588538     0.756918     0.000000
H      0.588538    -0.756918     0.000000
--
-2 1
Cl     3.177738     3.177738     0.000000
Cl     3.177738    -3.177738     0.000000

units ang
no_reorient
no_com
symmetry c1
}

set {
basis        aug-cc-pVTZ
scf_type     df
}

energy("sapt2+")
--------------------------------------------------------------------------

  //              Dimer HF             //
    Molecular point group: c1
  Charge       = -2
  Multiplicity = 1
  Basis Set: AUG-CC-PVTZ
    Blend: AUG-CC-PVTZ
  Basis Set: (AUG-CC-PVTZ AUX)
    Blend: AUG-CC-PVTZ-JKFIT
  @DF-RHF Final Energy:  -995.14632741886419
    Total Energy =                       -995.1463274188640753
 Dipole X            :       -217.3713346          206.3962049          -10.9751297
 Dipole Y            :         -0.0000000            0.0000000           -0.0000000
 Dipole Z            :         -0.0000000            0.0000000           -0.0000000
 Magnitude           :                                                   10.9751297
  //            Monomer A HF           //
    Molecular point group: c1
  Multiplicity = 1
  Basis Set: AUG-CC-PVTZ
    Blend: AUG-CC-PVTZ
  Basis Set: (AUG-CC-PVTZ AUX)
    Blend: AUG-CC-PVTZ-JKFIT
  @DF-RHF Final Energy:   -76.06049421531486
    Total Energy =                        -76.0604942153148613
  //            Monomer B HF           //
    Molecular point group: c1

    Geometry (in Angstrom), charge = -2, multiplicity = 1:

       Center              X                  Y                   Z               Mass
    ------------   -----------------  -----------------  -----------------  -----------------
      Gh(O)           0.000000000000     0.000000000000     0.000000000000    15.994914619570
      Gh(H)           0.588538000000     0.756918000000     0.000000000000     1.007825032230
      Gh(H)           0.588538000000    -0.756918000000     0.000000000000     1.007825032230
         CL           3.177738000000     3.177738000000     0.000000000000    34.968852682000
         CL           3.177738000000    -3.177738000000     0.000000000000    34.968852682000

  Charge       = -2
  Multiplicity = 1
  Basis Set: AUG-CC-PVTZ
    Blend: AUG-CC-PVTZ
  Basis Set: (AUG-CC-PVTZ AUX)
    Blend: AUG-CC-PVTZ-JKFIT

    Orbital Energies [Eh]
    ---------------------

    Doubly Occupied:

       1A   -104.424928     2A   -104.424928     3A    -10.148592
       4A    -10.148592     5A     -7.614630     6A     -7.614630
       7A     -7.614626     8A     -7.614626     9A     -7.614599
      10A     -7.614598    11A     -0.652109    12A     -0.652092
      13A     -0.069232    14A     -0.069219    15A     -0.069090
      16A     -0.069083    17A     -0.068788    18A     -0.067797

  @DF-RHF Final Energy:  -919.06505663443750

   => Energetics <=

    Nuclear Repulsion Energy =             24.0630621347055680
    One-Electron Energy =               -1333.1519126532493829
    Two-Electron Energy =                 390.0237938841062260
    Total Energy =                       -919.0650566344374965
 Dipole X            :       -216.1886890          204.1718536          -12.0168354
 Dipole Y            :          0.0000000            0.0000000            0.0000000
 Dipole Z            :         -0.0000000            0.0000000           -0.0000000
 Magnitude           :                                                   12.0168354

    SAPT Results
  --------------------------------------------------------------------------------------------------------
    Electrostatics                -18.35251822 [mEh]     -11.51637905 [kcal/mol]     -48.18452994 [kJ/mol]
      Elst10,r                    -19.29160175 [mEh]     -12.10566286 [kcal/mol]     -50.65009340 [kJ/mol]
      Elst12,r                      0.93908353 [mEh]       0.58928381 [kcal/mol]       2.46556346 [kJ/mol]

    Exchange                        0.83260218 [mEh]       0.52246576 [kcal/mol]       2.18599673 [kJ/mol]
      Exch10                        0.67947818 [mEh]       0.42637899 [kcal/mol]       1.78396971 [kJ/mol]
      Exch10(S^2)                   0.67946705 [mEh]       0.42637201 [kcal/mol]       1.78394051 [kJ/mol]
      Exch11(S^2)                   0.03596923 [mEh]       0.02257103 [kcal/mol]       0.09443719 [kJ/mol]
      Exch12(S^2)                   0.11715478 [mEh]       0.07351573 [kcal/mol]       0.30758982 [kJ/mol]

    Induction                      -2.37719636 [mEh]      -1.49171324 [kcal/mol]      -6.24132820 [kJ/mol]
      Ind20,r                      -2.33865133 [mEh]      -1.46752587 [kcal/mol]      -6.14012822 [kJ/mol]
      Ind22                        -0.24774909 [mEh]      -0.15546490 [kcal/mol]      -0.65046513 [kJ/mol]
      Exch-Ind20,r                  0.33036949 [mEh]       0.20730998 [kcal/mol]       0.86738498 [kJ/mol]
      Exch-Ind22                    0.03499826 [mEh]       0.02196174 [kcal/mol]       0.09188793 [kJ/mol]
      delta HF,r (2)               -0.15616370 [mEh]      -0.09799420 [kcal/mol]      -0.41000775 [kJ/mol]

    Dispersion                     -1.30589514 [mEh]      -0.81946157 [kcal/mol]      -3.42862720 [kJ/mol]
      Disp20                       -1.19991640 [mEh]      -0.75295891 [kcal/mol]      -3.15038007 [kJ/mol]
      Disp21                        0.06047223 [mEh]       0.03794690 [kcal/mol]       0.15876983 [kJ/mol]
      Disp22 (SDQ)                 -0.01327456 [mEh]      -0.00832991 [kcal/mol]      -0.03485234 [kJ/mol]
      Disp22 (T)                   -0.21949997 [mEh]      -0.13773831 [kcal/mol]      -0.57629710 [kJ/mol]
      Est. Disp22 (T)              -0.24700986 [mEh]      -0.15500103 [kcal/mol]      -0.64852431 [kJ/mol]
      Exch-Disp20                   0.09383345 [mEh]       0.05888138 [kcal/mol]       0.24635969 [kJ/mol]

  Total HF                        -20.77656911 [mEh]     -13.03749395 [kcal/mol]     -54.54887469 [kJ/mol]
  Total SAPT0                     -21.88265206 [mEh]     -13.73157148 [kcal/mol]     -57.45289507 [kJ/mol]
  Total SAPT2                     -21.00319535 [mEh]     -13.17970406 [kcal/mol]     -55.14388179 [kJ/mol]
  Total SAPT2+                    -21.20300753 [mEh]     -13.30508810 [kcal/mol]     -55.66848861 [kJ/mol]

  Special recipe for scaled SAPT0 (see Manual):
    Electrostatics sSAPT0         -19.29160175 [mEh]     -12.10566286 [kcal/mol]     -50.65009340 [kJ/mol]
    Exchange sSAPT0                 0.67947818 [mEh]       0.42637899 [kcal/mol]       1.78396971 [kJ/mol]
    Induction sSAPT0               -2.16442932 [mEh]      -1.35819990 [kcal/mol]      -5.68270839 [kJ/mol]
    Dispersion sSAPT0              -1.10607834 [mEh]      -0.69407464 [kcal/mol]      -2.90400828 [kJ/mol]
  Total sSAPT0                    -21.88263123 [mEh]     -13.73155841 [kcal/mol]     -57.45284037 [kJ/mol]
  --------------------------------------------------------------------------------------------------------

*** Psi4 exiting successfully. Buy a developer a beer!
