                               Psi4 1.9 release

  ==> Input File <==

--------------------------------------------------------------------------
MEMORY 60 GB

molecule dimer {
0 1
O      0.000000     0.000000     0.000000
H      0.588538     0.756918     0.000000
H      0.588538    -0.756918     0.000000
--
-2 1
Cl     4.539626     4.539626     0.000000
Cl     4.539626    -4.539626     0.000000

units ang
no_reorient
no_com
symmetry c1
}

set {
basis        aug-cc-pVTZ
scf_type     df
}

energy("sapt2+")
--------------------------------------------------------------------------

  //              Dimer HF             //
    Molecular point group: c1
  Charge       = -2
  Multiplicity = 1
  Basis Set: AUG-CC-PVTZ
    Blend: AUG-CC-PVTZ
  Basis Set: (AUG-CC-PVTZ AUX)
    Blend: AUG-CC-PVTZ-JKFIT
  @DF-RHF Final Energy:  -995.15870518698534
    Total Energy =                       -995.1587051869853440
 Dipole X            :       -310.1694009          293.8984462          -16.2709546
 Dipole Y            :          0.0000000            0.0000000            0.0000000
 Dipole Z            :         -0.0000000            0.0000000           -0.0000000
 Magnitude           :                                                   16.2709546
  //            Monomer A HF           //
    Molecular point group: c1
  Multiplicity = 1
  Basis Set: AUG-CC-PVTZ
    Blend: AUG-CC-PVTZ
  Basis Set: (AUG-CC-PVTZ AUX)
    Blend: AUG-CC-PVTZ-JKFIT
  @DF-RHF Final Energy:   -76.06048256365811
    Total Energy =                        -76.0604825636581126
  //            Monomer B HF           //
    Molecular point group: c1

    Geometry (in Angstrom), charge = -2, multiplicity = 1:

       Center              X                  Y                   Z               Mass
    ------------   -----------------  -----------------  -----------------  -----------------
      Gh(O)           0.000000000000     0.000000000000     0.000000000000    15.994914619570
      Gh(H)           0.588538000000     0.756918000000     0.000000000000     1.007825032230
      Gh(H)           0.588538000000    -0.756918000000     0.000000000000     1.007825032230
         CL           4.539626000000     4.539626000000     0.000000000000    34.968852682000
         CL           4.539626000000    -4.539626000000     0.000000000000    34.968852682000

  Charge       = -2
  Multiplicity = 1
  Basis Set: AUG-CC-PVTZ
    Blend: AUG-CC-PVTZ
  Basis Set: (AUG-CC-PVTZ AUX)
    Blend: AUG-CC-PVTZ-JKFIT

    Orbital Energies [Eh]
    ---------------------

    Doubly Occupied:

       1A   -104.448152     2A   -104.448152     3A    -10.171911
       4A    -10.171911     5A     -7.637944     6A     -7.637944
       7A     -7.637942     8A     -7.637942     9A     -7.637931
      10A     -7.637931    11A     -0.675628    12A     -0.675628
      13A     -0.092543    14A     -0.092542    15A     -0.092539
      16A     -0.092538    17A     -0.092270    18A     -0.092231

  @DF-RHF Final Energy:  -919.08898585215218

   => Energetics <=

    Nuclear Repulsion Energy =             16.8441424341597745
    One-Electron Energy =               -1317.9188949668618989
    Two-Electron Energy =                 381.9857666805500003
    Total Energy =                       -919.0889858521521774
 Dipole X            :       -308.8348274          291.6740950          -17.1607324
 Dipole Y            :         -0.0000000            0.0000000           -0.0000000
 Dipole Z            :         -0.0000000            0.0000000           -0.0000000
 Magnitude           :                                                   17.1607324

    SAPT Results
  --------------------------------------------------------------------------------------------------------
    Electrostatics                 -8.32626389 [mEh]      -5.22480947 [kcal/mol]     -21.86060284 [kJ/mol]
      Elst10,r                     -8.80161712 [mEh]      -5.52309813 [kcal/mol]     -23.10864256 [kJ/mol]
      Elst12,r                      0.47535323 [mEh]       0.29828865 [kcal/mol]       1.24803972 [kJ/mol]

    Exchange                        0.00607909 [mEh]       0.00381469 [kcal/mol]       0.01596064 [kJ/mol]
      Exch10                        0.00433334 [mEh]       0.00271921 [kcal/mol]       0.01137719 [kJ/mol]
      Exch10(S^2)                   0.00433335 [mEh]       0.00271922 [kcal/mol]       0.01137720 [kJ/mol]
      Exch11(S^2)                   0.00021593 [mEh]       0.00013550 [kcal/mol]       0.00056692 [kJ/mol]
      Exch12(S^2)                   0.00152981 [mEh]       0.00095997 [kcal/mol]       0.00401653 [kJ/mol]

    Induction                      -0.48472378 [mEh]      -0.30416877 [kcal/mol]      -1.27264211 [kJ/mol]
      Ind20,r                      -0.43964011 [mEh]      -0.27587833 [kcal/mol]      -1.15427494 [kJ/mol]
      Ind22                        -0.04551152 [mEh]      -0.02855891 [kcal/mol]      -0.11949048 [kJ/mol]
      Exch-Ind20,r                  0.00265784 [mEh]       0.00166782 [kcal/mol]       0.00697815 [kJ/mol]
      Exch-Ind22                    0.00027514 [mEh]       0.00017265 [kcal/mol]       0.00072238 [kJ/mol]
      delta HF,r (2)               -0.00250513 [mEh]      -0.00157199 [kcal/mol]      -0.00657722 [kJ/mol]

    Dispersion                     -0.10380391 [mEh]      -0.06513794 [kcal/mol]      -0.27253712 [kJ/mol]
      Disp20                       -0.09404712 [mEh]      -0.05901546 [kcal/mol]      -0.24692068 [kJ/mol]
      Disp21                        0.00944726 [mEh]       0.00592825 [kcal/mol]       0.02480379 [kJ/mol]
      Disp22 (SDQ)                 -0.00052290 [mEh]      -0.00032812 [kcal/mol]      -0.00137287 [kJ/mol]
      Disp22 (T)                   -0.01811623 [mEh]      -0.01136810 [kcal/mol]      -0.04756415 [kJ/mol]
      Est. Disp22 (T)              -0.01941504 [mEh]      -0.01218312 [kcal/mol]      -0.05097417 [kJ/mol]
      Exch-Disp20                   0.00073388 [mEh]       0.00046052 [kcal/mol]       0.00192680 [kJ/mol]

  Total HF                         -9.23677118 [mEh]      -5.79616142 [kcal/mol]     -24.25113938 [kJ/mol]
  Total SAPT0                      -9.33008441 [mEh]      -5.85471636 [kcal/mol]     -24.49613325 [kJ/mol]
  Total SAPT2                      -8.89822183 [mEh]      -5.58371850 [kcal/mol]     -23.36227819 [kJ/mol]
  Total SAPT2+                     -8.90871250 [mEh]      -5.59030149 [kcal/mol]     -23.38982143 [kJ/mol]

  Special recipe for scaled SAPT0 (see Manual):
    Electrostatics sSAPT0          -8.80161712 [mEh]      -5.52309813 [kcal/mol]     -23.10864256 [kJ/mol]
    Exchange sSAPT0                 0.00433334 [mEh]       0.00271921 [kcal/mol]       0.01137719 [kJ/mol]
    Induction sSAPT0               -0.43948740 [mEh]      -0.27578251 [kcal/mol]      -1.15387401 [kJ/mol]
    Dispersion sSAPT0              -0.09331324 [mEh]      -0.05855494 [kcal/mol]      -0.24499387 [kJ/mol]
  Total sSAPT0                     -9.33008441 [mEh]      -5.85471636 [kcal/mol]     -24.49613325 [kJ/mol]
  --------------------------------------------------------------------------------------------------------

*** Psi4 exiting successfully. Buy a developer a beer!
