                               Psi4 1.9 release

  ==> Input File <==

--------------------------------------------------------------------------
MEMORY 60 GB

molecule dimer {
0 1
O      0.000000     0.000000     0.000000
H      0.588538     0.756918     0.000000
H      0.588538    -0.756918     0.000000
--
-2 1
Br     3.326230     3.326230     0.000000
Br     3.326230    -3.326230     0.000000

units ang
no_reorient
no_com
symmetry c1
}

set {
basis        aug-cc-pVTZ
scf_type     df
}

energy("sapt2+")
--------------------------------------------------------------------------

  //              Dimer HF             //
    Molecular point group: c1
  Charge       = -2
  Multiplicity = 1
  Basis Set: AUG-CC-PVTZ
    Blend: AUG-CC-PVTZ
  Basis Set: (AUG-CC-PVTZ AUX)
    Blend: AUG-CC-PVTZ-JKFIT
  @DF-RHF Final Energy: -5221.06821804086485
    Total Energy =                      -5221.0682180408648492
 Dipole X            :       -453.7610999          442.2208124          -11.5402876
 Dipole Y            :         -0.0000000            0.0000000           -0.0000000
 Dipole Z            :          0.0000000            0.0000000            0.0000000
 Magnitude           :                                                   11.5402876
  //            Monomer A HF           //
    Molecular point group: c1
  Multiplicity = 1
  Basis Set: AUG-CC-PVTZ
    Blend: AUG-CC-PVTZ
  Basis Set: (AUG-CC-PVTZ AUX)
    Blend: AUG-CC-PVTZ-JKFIT
  @DF-RHF Final Energy:   -76.06049497509159
    Total Energy =                        -76.0604949750915722
  //            Monomer B HF           //
    Molecular point group: c1

    Geometry (in Angstrom), charge = -2, multiplicity = 1:

       Center              X                  Y                   Z               Mass
    ------------   -----------------  -----------------  -----------------  -----------------
      Gh(O)           0.000000000000     0.000000000000     0.000000000000    15.994914619570
      Gh(H)           0.588538000000     0.756918000000     0.000000000000     1.007825032230
      Gh(H)           0.588538000000    -0.756918000000     0.000000000000     1.007825032230
         BR           3.326230000000     3.326230000000     0.000000000000    78.918337600000
         BR           3.326230000000    -3.326230000000     0.000000000000    78.918337600000

  Charge       = -2
  Multiplicity = 1
  Basis Set: AUG-CC-PVTZ
    Blend: AUG-CC-PVTZ
  Basis Set: (AUG-CC-PVTZ AUX)
    Blend: AUG-CC-PVTZ-JKFIT

    Orbital Energies [Eh]
    ---------------------

    Doubly Occupied:

       1A   -489.643302     2A   -489.643302     3A    -64.783348
       4A    -64.783348     5A    -58.137824     6A    -58.137824
       7A    -58.137824     8A    -58.137824     9A    -58.137807
      10A    -58.137807    11A     -9.455696    12A     -9.455696
      13A     -7.063063    14A     -7.063063    15A     -7.063063
      16A     -7.063063    17A     -7.062956    18A     -7.062956
      19A     -2.804786    20A     -2.804786    21A     -2.804784
      22A     -2.804784    23A     -2.804656    24A     -2.804656
      25A     -2.804654    26A     -2.804654    27A     -2.804614
      28A     -2.804614    29A     -0.608608    30A     -0.608589
      31A     -0.062303    32A     -0.062292    33A     -0.062142
      34A     -0.062136    35A     -0.061736    36A     -0.060597

  @DF-RHF Final Energy: -5144.98935987754248

   => Energetics <=

    Nuclear Repulsion Energy =             97.4439655512021261
    One-Electron Energy =               -7387.6563371022375577
    Two-Electron Energy =                2145.2230116734922376
    Total Energy =                      -5144.9893598775433929
 Dipole X            :       -452.5730423          439.9964611          -12.5765812
 Dipole Y            :          0.0000000            0.0000000            0.0000000
 Dipole Z            :          0.0000000            0.0000000            0.0000000
 Magnitude           :                                                   12.5765812

    SAPT Results
  --------------------------------------------------------------------------------------------------------
    Electrostatics                -16.35994407 [mEh]     -10.26601990 [kcal/mol]     -42.95302724 [kJ/mol]
      Elst10,r                    -17.20046186 [mEh]     -10.79345277 [kcal/mol]     -45.15980640 [kJ/mol]
      Elst12,r                      0.84051779 [mEh]       0.52743288 [kcal/mol]       2.20677915 [kJ/mol]

    Exchange                        0.76592340 [mEh]       0.48062419 [kcal/mol]       2.01093160 [kJ/mol]
      Exch10                        0.64444298 [mEh]       0.40439408 [kcal/mol]       1.69198482 [kJ/mol]
      Exch10(S^2)                   0.64442425 [mEh]       0.40438232 [kcal/mol]       1.69193563 [kJ/mol]
      Exch11(S^2)                   0.03479684 [mEh]       0.02183534 [kcal/mol]       0.09135908 [kJ/mol]
      Exch12(S^2)                   0.08668358 [mEh]       0.05439477 [kcal/mol]       0.22758770 [kJ/mol]

    Induction                      -1.97184185 [mEh]      -1.23734944 [kcal/mol]      -5.17707006 [kJ/mol]
      Ind20,r                      -2.02625728 [mEh]      -1.27149564 [kcal/mol]      -5.31993776 [kJ/mol]
      Ind22                        -0.19919166 [mEh]      -0.12499465 [kcal/mol]      -0.52297762 [kJ/mol]
      Exch-Ind20,r                  0.35114273 [mEh]       0.22034539 [kcal/mol]       0.92192511 [kJ/mol]
      Exch-Ind22                    0.03451916 [mEh]       0.02166110 [kcal/mol]       0.09063005 [kJ/mol]
      delta HF,r (2)               -0.13205480 [mEh]      -0.08286564 [kcal/mol]      -0.34670982 [kJ/mol]

    Dispersion                     -1.26797554 [mEh]      -0.79566667 [kcal/mol]      -3.32906933 [kJ/mol]
      Disp20                       -1.18477705 [mEh]      -0.74345882 [kcal/mol]      -3.11063171 [kJ/mol]
      Disp21                        0.07769225 [mEh]       0.04875262 [kcal/mol]       0.20398097 [kJ/mol]
      Disp22 (SDQ)                 -0.01220243 [mEh]      -0.00765714 [kcal/mol]      -0.03203748 [kJ/mol]
      Disp22 (T)                   -0.21282435 [mEh]      -0.13354930 [kcal/mol]      -0.55877025 [kJ/mol]
      Est. Disp22 (T)              -0.23947258 [mEh]      -0.15027131 [kcal/mol]      -0.62873516 [kJ/mol]
      Exch-Disp20                   0.09078427 [mEh]       0.05696799 [kcal/mol]       0.23835406 [kJ/mol]

  Total HF                        -18.36318823 [mEh]     -11.52307458 [kcal/mol]     -48.21254406 [kJ/mol]
  Total SAPT0                     -19.45718101 [mEh]     -12.20956542 [kcal/mol]     -51.08482171 [kJ/mol]
  Total SAPT2                     -18.65985530 [mEh]     -11.70923598 [kcal/mol]     -48.99144335 [kJ/mol]
  Total SAPT2+                    -18.83383806 [mEh]     -11.81841181 [kcal/mol]     -49.44823502 [kJ/mol]

  Special recipe for scaled SAPT0 (see Manual):
    Electrostatics sSAPT0         -17.20046186 [mEh]     -10.79345277 [kcal/mol]     -45.15980640 [kJ/mol]
    Exchange sSAPT0                 0.64444298 [mEh]       0.40439408 [kcal/mol]       1.69198482 [kJ/mol]
    Induction sSAPT0               -1.80713873 [mEh]      -1.13399667 [kcal/mol]      -4.74464207 [kJ/mol]
    Dispersion sSAPT0              -1.09398486 [mEh]      -0.68648587 [kcal/mol]      -2.87225687 [kJ/mol]
  Total sSAPT0                    -19.45714247 [mEh]     -12.20954123 [kcal/mol]     -51.08472052 [kJ/mol]
  --------------------------------------------------------------------------------------------------------

*** Psi4 exiting successfully. Buy a developer a beer!
