                               Psi4 1.9 release

  ==> Input File <==

--------------------------------------------------------------------------
MEMORY 60 GB

molecule dimer {
0 1
O      0.000000     0.000000     0.000000
H      0.588538     0.756918     0.000000
H      0.588538    -0.756918     0.000000
--
-2 1
Br     3.088642     3.088642     0.000000
Br     3.088642    -3.088642     0.000000

units ang
no_reorient
no_com
symmetry c1
}

set {
basis        aug-cc-pVTZ
scf_type     df
}

energy("sapt2+")
--------------------------------------------------------------------------

  //              Dimer HF             //
    Molecular point group: c1
  Charge       = -2
  Multiplicity = 1
  Basis Set: AUG-CC-PVTZ
    Blend: AUG-CC-PVTZ
  Basis Set: (AUG-CC-PVTZ AUX)
    Blend: AUG-CC-PVTZ-JKFIT
  @DF-RHF Final Energy: -5221.06566457418648
    Total Energy =                      -5221.0656645741855755
 Dipole X            :       -421.3906546          410.7924748          -10.5981798
 Dipole Y            :          0.0000000            0.0000000            0.0000000
 Dipole Z            :          0.0000000            0.0000000            0.0000000
 Magnitude           :                                                   10.5981798
  //            Monomer A HF           //
    Molecular point group: c1
  Multiplicity = 1
  Basis Set: AUG-CC-PVTZ
    Blend: AUG-CC-PVTZ
  Basis Set: (AUG-CC-PVTZ AUX)
    Blend: AUG-CC-PVTZ-JKFIT
  @DF-RHF Final Energy:   -76.06049696060130
    Total Energy =                        -76.0604969606012986
  //            Monomer B HF           //
    Molecular point group: c1

    Geometry (in Angstrom), charge = -2, multiplicity = 1:

       Center              X                  Y                   Z               Mass
    ------------   -----------------  -----------------  -----------------  -----------------
      Gh(O)           0.000000000000     0.000000000000     0.000000000000    15.994914619570
      Gh(H)           0.588538000000     0.756918000000     0.000000000000     1.007825032230
      Gh(H)           0.588538000000    -0.756918000000     0.000000000000     1.007825032230
         BR           3.088642000000     3.088642000000     0.000000000000    78.918337600000
         BR           3.088642000000    -3.088642000000     0.000000000000    78.918337600000

  Charge       = -2
  Multiplicity = 1
  Basis Set: AUG-CC-PVTZ
    Blend: AUG-CC-PVTZ
  Basis Set: (AUG-CC-PVTZ AUX)
    Blend: AUG-CC-PVTZ-JKFIT

    Orbital Energies [Eh]
    ---------------------

    Doubly Occupied:

       1A   -489.638094     2A   -489.638094     3A    -64.778117
       4A    -64.778117     5A    -58.132596     6A    -58.132596
       7A    -58.132596     8A    -58.132596     9A    -58.132576
      10A    -58.132576    11A     -9.450435    12A     -9.450435
      13A     -7.057806    14A     -7.057806    15A     -7.057805
      16A     -7.057805    17A     -7.057680    18A     -7.057680
      19A     -2.799539    20A     -2.799539    21A     -2.799537
      22A     -2.799537    23A     -2.799388    24A     -2.799388
      25A     -2.799387    26A     -2.799387    27A     -2.799339
      28A     -2.799339    29A     -0.603269    30A     -0.603222
      31A     -0.057081    32A     -0.057064    33A     -0.056779
      34A     -0.056771    35A     -0.056619    36A     -0.054614

  @DF-RHF Final Energy: -5144.98379203824061

   => Energetics <=

    Nuclear Repulsion Energy =            104.9396600626990761
    One-Electron Energy =               -7403.0164852443076597
    Two-Electron Energy =                2153.0930331433687570
    Total Energy =                      -5144.9837920382396987
 Dipole X            :       -420.2471221          408.5681236          -11.6789985
 Dipole Y            :         -0.0000000            0.0000000           -0.0000000
 Dipole Z            :         -0.0000000            0.0000000           -0.0000000
 Magnitude           :                                                   11.6789985

    SAPT Results
  --------------------------------------------------------------------------------------------------------
    Electrostatics                -19.41313985 [mEh]     -12.18192917 [kcal/mol]     -50.96919166 [kJ/mol]
      Elst10,r                    -20.33627178 [mEh]     -12.76120320 [kcal/mol]     -53.39287420 [kJ/mol]
      Elst12,r                      0.92313193 [mEh]       0.57927403 [kcal/mol]       2.42368254 [kJ/mol]

    Exchange                        1.85572790 [mEh]       1.16448684 [kcal/mol]       4.87221293 [kJ/mol]
      Exch10                        1.58562357 [mEh]       0.99499381 [kcal/mol]       4.16305412 [kJ/mol]
      Exch10(S^2)                   1.58543466 [mEh]       0.99487527 [kcal/mol]       4.16255813 [kJ/mol]
      Exch11(S^2)                   0.08567491 [mEh]       0.05376182 [kcal/mol]       0.22493944 [kJ/mol]
      Exch12(S^2)                   0.18442942 [mEh]       0.11573121 [kcal/mol]       0.48421937 [kJ/mol]

    Induction                      -2.85428906 [mEh]      -1.79109343 [kcal/mol]      -7.49393490 [kJ/mol]
      Ind20,r                      -3.13336888 [mEh]      -1.96621866 [kcal/mol]      -8.22665886 [kJ/mol]
      Ind22                        -0.31180739 [mEh]      -0.19566209 [kcal/mol]      -0.81865020 [kJ/mol]
      Exch-Ind20,r                  0.82849887 [mEh]       0.51989089 [kcal/mol]       2.17522348 [kJ/mol]
      Exch-Ind22                    0.08244547 [mEh]       0.05173531 [kcal/mol]       0.21646055 [kJ/mol]
      delta HF,r (2)               -0.32005713 [mEh]      -0.20083888 [kcal/mol]      -0.84030988 [kJ/mol]

    Dispersion                     -2.10811886 [mEh]      -1.32286456 [kcal/mol]      -5.53486530 [kJ/mol]
      Disp20                       -2.02022184 [mEh]      -1.26770834 [kcal/mol]      -5.30409170 [kJ/mol]
      Disp21                        0.11995042 [mEh]       0.07527003 [kcal/mol]       0.31492979 [kJ/mol]
      Disp22 (SDQ)                 -0.01671824 [mEh]      -0.01049085 [kcal/mol]      -0.04389373 [kJ/mol]
      Disp22 (T)                   -0.35262969 [mEh]      -0.22127847 [kcal/mol]      -0.92582912 [kJ/mol]
      Est. Disp22 (T)              -0.40034210 [mEh]      -0.25121846 [kcal/mol]      -1.05109804 [kJ/mol]
      Exch-Disp20                   0.20921290 [mEh]       0.13128307 [kcal/mol]       0.54928838 [kJ/mol]

  Total HF                        -21.37557534 [mEh]     -13.41337604 [kcal/mol]     -56.12156534 [kJ/mol]
  Total SAPT0                     -23.18658429 [mEh]     -14.54980130 [kcal/mol]     -60.87636866 [kJ/mol]
  Total SAPT2                     -22.22270995 [mEh]     -13.94496103 [kcal/mol]     -58.34571695 [kJ/mol]
  Total SAPT2+                    -22.51981987 [mEh]     -14.13140032 [kcal/mol]     -59.12577893 [kJ/mol]

  Special recipe for scaled SAPT0 (see Manual):
    Electrostatics sSAPT0         -20.33627178 [mEh]     -12.76120320 [kcal/mol]     -53.39287420 [kJ/mol]
    Exchange sSAPT0                 1.58562357 [mEh]       0.99499381 [kcal/mol]       4.16305412 [kJ/mol]
    Induction sSAPT0               -2.62463095 [mEh]      -1.64698078 [kcal/mol]      -6.89096760 [kJ/mol]
    Dispersion sSAPT0              -1.81093415 [mEh]      -1.13637833 [kcal/mol]      -4.75460694 [kJ/mol]
  Total sSAPT0                    -23.18621330 [mEh]     -14.54956850 [kcal/mol]     -60.87539462 [kJ/mol]
  --------------------------------------------------------------------------------------------------------

*** Psi4 exiting successfully. Buy a developer a beer!
