                               Psi4 1.9 release

  ==> Input File <==

--------------------------------------------------------------------------
MEMORY 60 GB

molecule dimer {
0 1
O      0.000000     0.000000     0.000000
H      0.588538     0.756918     0.000000
H      0.588538    -0.756918     0.000000
--
-2 1
Br     2.613467     2.613467     0.000000
Br     2.613467    -2.613467     0.000000

units ang
no_reorient
no_com
symmetry c1
}

set {
basis        aug-cc-pVTZ
scf_type     df
}

energy("sapt2+")
--------------------------------------------------------------------------

  //              Dimer HF             //
    Molecular point group: c1
  Charge       = -2
  Multiplicity = 1
  Basis Set: AUG-CC-PVTZ
    Blend: AUG-CC-PVTZ
  Basis Set: (AUG-CC-PVTZ AUX)
    Blend: AUG-CC-PVTZ-JKFIT
  @DF-RHF Final Energy: -5221.05777156764816
    Total Energy =                      -5221.0577715676481603
 Dipole X            :       -356.6324443          347.9359320           -8.6965123
 Dipole Y            :          0.0000000            0.0000000            0.0000000
 Dipole Z            :         -0.0000000            0.0000000           -0.0000000
 Magnitude           :                                                    8.6965123
  //            Monomer A HF           //
    Molecular point group: c1
  Multiplicity = 1
  Basis Set: AUG-CC-PVTZ
    Blend: AUG-CC-PVTZ
  Basis Set: (AUG-CC-PVTZ AUX)
    Blend: AUG-CC-PVTZ-JKFIT
  @DF-RHF Final Energy:   -76.06051592593455
    Total Energy =                        -76.0605159259345669
  //            Monomer B HF           //
    Molecular point group: c1

    Geometry (in Angstrom), charge = -2, multiplicity = 1:

       Center              X                  Y                   Z               Mass
    ------------   -----------------  -----------------  -----------------  -----------------
      Gh(O)           0.000000000000     0.000000000000     0.000000000000    15.994914619570
      Gh(H)           0.588538000000     0.756918000000     0.000000000000     1.007825032230
      Gh(H)           0.588538000000    -0.756918000000     0.000000000000     1.007825032230
         BR           2.613467000000     2.613467000000     0.000000000000    78.918337600000
         BR           2.613467000000    -2.613467000000     0.000000000000    78.918337600000

  Charge       = -2
  Multiplicity = 1
  Basis Set: AUG-CC-PVTZ
    Blend: AUG-CC-PVTZ
  Basis Set: (AUG-CC-PVTZ AUX)
    Blend: AUG-CC-PVTZ-JKFIT

    Orbital Energies [Eh]
    ---------------------

    Doubly Occupied:

       1A   -489.625743     2A   -489.625743     3A    -64.765686
       4A    -64.765686     5A    -58.120176     6A    -58.120176
       7A    -58.120176     8A    -58.120176     9A    -58.120149
      10A    -58.120149    11A     -9.437887    12A     -9.437887
      13A     -7.045269    14A     -7.045269    15A     -7.045263
      16A     -7.045263    17A     -7.045090    18A     -7.045090
      19A     -2.787033    20A     -2.787033    21A     -2.787029
      22A     -2.787029    23A     -2.786823    24A     -2.786822
      25A     -2.786813    26A     -2.786812    27A     -2.786751
      28A     -2.786750    29A     -0.590541    30A     -0.590235
      31A     -0.045362    32A     -0.044790    33A     -0.044760
      34A     -0.043699    35A     -0.043684    36A     -0.038960

  @DF-RHF Final Energy: -5144.97016389101282

   => Energetics <=

    Nuclear Repulsion Energy =            124.0195654031120398
    One-Electron Energy =               -7442.0558500498455032
    Two-Electron Energy =                2173.0661207557204762
    Total Energy =                      -5144.9701638910128167
 Dipole X            :       -355.5952296          345.7115808           -9.8836488
 Dipole Y            :          0.0000000            0.0000000            0.0000000
 Dipole Z            :         -0.0000000            0.0000000           -0.0000000
 Magnitude           :                                                    9.8836488

    SAPT Results
  --------------------------------------------------------------------------------------------------------
    Electrostatics                -29.89767451 [mEh]     -18.76107400 [kcal/mol]     -78.49633361 [kJ/mol]
      Elst10,r                    -30.77626546 [mEh]     -19.31239815 [kcal/mol]     -80.80307384 [kJ/mol]
      Elst12,r                      0.87859096 [mEh]       0.55132415 [kcal/mol]       2.30674024 [kJ/mol]

    Exchange                       11.55131487 [mEh]       7.24855952 [kcal/mol]      30.32797302 [kJ/mol]
      Exch10                       10.19849529 [mEh]       6.39965241 [kcal/mol]      26.77614569 [kJ/mol]
      Exch10(S^2)                  10.18352123 [mEh]       6.39025605 [kcal/mol]      26.73683130 [kJ/mol]
      Exch11(S^2)                   0.49857919 [mEh]       0.31286317 [kcal/mol]       1.30901949 [kJ/mol]
      Exch12(S^2)                   0.85424039 [mEh]       0.53604394 [kcal/mol]       2.24280784 [kJ/mol]

    Induction                      -7.03716083 [mEh]      -4.41588509 [kcal/mol]     -18.47606321 [kJ/mol]
      Ind20,r                      -9.71489604 [mEh]      -6.09618930 [kcal/mol]     -25.50645603 [kJ/mol]
      Ind22                        -1.07423394 [mEh]      -0.67409198 [kcal/mol]      -2.82040082 [kJ/mol]
      Exch-Ind20,r                  4.98348505 [mEh]       3.12718408 [kcal/mol]      13.08413818 [kJ/mol]
      Exch-Ind22                    0.55105364 [mEh]       0.34579138 [kcal/mol]       1.44679112 [kJ/mol]
      delta HF,r (2)               -1.78256953 [mEh]      -1.11857927 [kcal/mol]      -4.68013566 [kJ/mol]

    Dispersion                     -6.13609182 [mEh]      -3.85045575 [kcal/mol]     -16.11030685 [kJ/mol]
      Disp20                       -6.42180176 [mEh]      -4.02974144 [kcal/mol]     -16.86043820 [kJ/mol]
      Disp21                        0.38082910 [mEh]       0.23897387 [kcal/mol]       0.99986667 [kJ/mol]
      Disp22 (SDQ)                 -0.01087153 [mEh]      -0.00682199 [kcal/mol]      -0.02854319 [kJ/mol]
      Disp22 (T)                   -1.04947865 [mEh]      -0.65855779 [kcal/mol]      -2.75540581 [kJ/mol]
      Est. Disp22 (T)              -1.18959885 [mEh]      -0.74648455 [kcal/mol]      -3.12329136 [kJ/mol]
      Exch-Disp20                   1.10535122 [mEh]       0.69361836 [kcal/mol]       2.90209923 [kJ/mol]

  Total HF                        -27.09175070 [mEh]     -17.00033023 [kcal/mol]     -71.12938166 [kJ/mol]
  Total SAPT0                     -32.40820124 [mEh]     -20.33645331 [kcal/mol]     -85.08772063 [kJ/mol]
  Total SAPT2                     -30.69997100 [mEh]     -19.26452265 [kcal/mol]     -80.60276277 [kJ/mol]
  Total SAPT2+                    -31.51961228 [mEh]     -19.77885532 [kcal/mol]     -82.75473064 [kJ/mol]

  Special recipe for scaled SAPT0 (see Manual):
    Electrostatics sSAPT0         -30.77626546 [mEh]     -19.31239815 [kcal/mol]     -80.80307384 [kJ/mol]
    Exchange sSAPT0                10.19849529 [mEh]       6.39965241 [kcal/mol]      26.77614569 [kJ/mol]
    Induction sSAPT0               -6.49196473 [mEh]      -4.07376937 [kcal/mol]     -17.04465104 [kJ/mol]
    Dispersion sSAPT0              -5.31156737 [mEh]      -3.33305885 [kcal/mol]     -13.94551822 [kJ/mol]
  Total sSAPT0                    -32.38130227 [mEh]     -20.31957395 [kcal/mol]     -85.01709741 [kJ/mol]
  --------------------------------------------------------------------------------------------------------

*** Psi4 exiting successfully. Buy a developer a beer!
