                               Psi4 1.9 release

  ==> Input File <==

--------------------------------------------------------------------------
MEMORY 60 GB

molecule dimer {
0 1
O      0.000000     0.000000     0.000000
H      0.588538     0.756918     0.000000
H      0.588538    -0.756918     0.000000
--
-2 1
Br     2.851055     2.851055     0.000000
Br     2.851055    -2.851055     0.000000

units ang
no_reorient
no_com
symmetry c1
}

set {
basis        aug-cc-pVTZ
scf_type     df
}

energy("sapt2+")
--------------------------------------------------------------------------

  //              Dimer HF             //
    Molecular point group: c1
  Charge       = -2
  Multiplicity = 1
  Basis Set: AUG-CC-PVTZ
    Blend: AUG-CC-PVTZ
  Basis Set: (AUG-CC-PVTZ AUX)
    Blend: AUG-CC-PVTZ-JKFIT
  @DF-RHF Final Energy: -5221.06256560565907
    Total Energy =                      -5221.0625656056590742
 Dipole X            :       -389.0141047          379.3642696           -9.6498352
 Dipole Y            :         -0.0000000            0.0000000           -0.0000000
 Dipole Z            :          0.0000000            0.0000000            0.0000000
 Magnitude           :                                                    9.6498352
  //            Monomer A HF           //
    Molecular point group: c1
  Multiplicity = 1
  Basis Set: AUG-CC-PVTZ
    Blend: AUG-CC-PVTZ
  Basis Set: (AUG-CC-PVTZ AUX)
    Blend: AUG-CC-PVTZ-JKFIT
  @DF-RHF Final Energy:   -76.06050357166052
    Total Energy =                        -76.0605035716605187
  //            Monomer B HF           //
    Molecular point group: c1

    Geometry (in Angstrom), charge = -2, multiplicity = 1:

       Center              X                  Y                   Z               Mass
    ------------   -----------------  -----------------  -----------------  -----------------
      Gh(O)           0.000000000000     0.000000000000     0.000000000000    15.994914619570
      Gh(H)           0.588538000000     0.756918000000     0.000000000000     1.007825032230
      Gh(H)           0.588538000000    -0.756918000000     0.000000000000     1.007825032230
         BR           2.851055000000     2.851055000000     0.000000000000    78.918337600000
         BR           2.851055000000    -2.851055000000     0.000000000000    78.918337600000

  Charge       = -2
  Multiplicity = 1
  Basis Set: AUG-CC-PVTZ
    Blend: AUG-CC-PVTZ
  Basis Set: (AUG-CC-PVTZ AUX)
    Blend: AUG-CC-PVTZ-JKFIT

    Orbital Energies [Eh]
    ---------------------

    Doubly Occupied:

       1A   -489.632267     2A   -489.632267     3A    -64.772257
       4A    -64.772257     5A    -58.126741     6A    -58.126741
       7A    -58.126741     8A    -58.126741     9A    -58.126717
      10A    -58.126717    11A     -9.444531    12A     -9.444531
      13A     -7.051907    14A     -7.051907    15A     -7.051904
      16A     -7.051904    17A     -7.051758    18A     -7.051758
      19A     -2.793653    20A     -2.793653    21A     -2.793651
      22A     -2.793651    23A     -2.793476    24A     -2.793476
      25A     -2.793472    26A     -2.793471    27A     -2.793418
      28A     -2.793417    29A     -0.597271    30A     -0.597151
      31A     -0.051257    32A     -0.051233    33A     -0.051104
      34A     -0.050687    35A     -0.050675    36A     -0.047541

  @DF-RHF Final Energy: -5144.97744859291834

   => Energetics <=

    Nuclear Repulsion Energy =            113.6845979945581604
    One-Electron Energy =               -7420.9202863750606411
    Two-Electron Energy =                2162.2582397875835341
    Total Energy =                      -5144.9774485929192451
 Dipole X            :       -387.9214262          377.1399183          -10.7815079
 Dipole Y            :         -0.0000000            0.0000000           -0.0000000
 Dipole Z            :         -0.0000000            0.0000000           -0.0000000
 Magnitude           :                                                   10.7815079

    SAPT Results
  --------------------------------------------------------------------------------------------------------
    Electrostatics                -23.63219730 [mEh]     -14.82942769 [kcal/mol]     -62.04632548 [kJ/mol]
      Elst10,r                    -24.59667210 [mEh]     -15.43464477 [kcal/mol]     -64.57855371 [kJ/mol]
      Elst12,r                      0.96447480 [mEh]       0.60521707 [kcal/mol]       2.53222823 [kJ/mol]

    Exchange                        4.58628457 [mEh]       2.87793702 [kcal/mol]      12.04128847 [kJ/mol]
      Exch10                        3.98063676 [mEh]       2.49788728 [kcal/mol]      10.45116038 [kJ/mol]
      Exch10(S^2)                   3.97890277 [mEh]       2.49679918 [kcal/mol]      10.44660778 [kJ/mol]
      Exch11(S^2)                   0.20970560 [mEh]       0.13159225 [kcal/mol]       0.55058199 [kJ/mol]
      Exch12(S^2)                   0.39594220 [mEh]       0.24845748 [kcal/mol]       1.03954610 [kJ/mol]

    Induction                      -4.33217015 [mEh]      -2.71847781 [kcal/mol]     -11.37411116 [kJ/mol]
      Ind20,r                      -5.24299253 [mEh]      -3.29002748 [kcal/mol]     -13.76547499 [kJ/mol]
      Ind22                        -0.54024541 [mEh]      -0.33900912 [kcal/mol]      -1.41841414 [kJ/mol]
      Exch-Ind20,r                  1.99415926 [mEh]       1.25135383 [kcal/mol]       5.23566441 [kJ/mol]
      Exch-Ind22                    0.20548101 [mEh]       0.12894128 [kcal/mol]       0.53949031 [kJ/mol]
      delta HF,r (2)               -0.74857247 [mEh]      -0.46973632 [kcal/mol]      -1.96537674 [kJ/mol]

    Dispersion                     -3.57217391 [mEh]      -2.24157297 [kcal/mol]      -9.37874131 [kJ/mol]
      Disp20                       -3.55347593 [mEh]      -2.22983981 [kcal/mol]      -9.32964978 [kJ/mol]
      Disp21                        0.20185297 [mEh]       0.12666465 [kcal/mol]       0.52996489 [kJ/mol]
      Disp22 (SDQ)                 -0.01912873 [mEh]      -0.01200346 [kcal/mol]      -0.05022246 [kJ/mol]
      Disp22 (T)                   -0.60267024 [mEh]      -0.37818128 [kcal/mol]      -1.58231049 [kJ/mol]
      Est. Disp22 (T)              -0.68347253 [mEh]      -0.42888549 [kcal/mol]      -1.79445688 [kJ/mol]
      Exch-Disp20                   0.48205031 [mEh]       0.30249114 [kcal/mol]       1.26562292 [kJ/mol]

  Total HF                        -24.61344108 [mEh]     -15.44516746 [kcal/mol]     -64.62258065 [kJ/mol]
  Total SAPT0                     -27.68486670 [mEh]     -17.37251614 [kcal/mol]     -72.68660752 [kJ/mol]
  Total SAPT2                     -26.44950851 [mEh]     -16.59731717 [kcal/mol]     -69.44317502 [kJ/mol]
  Total SAPT2+                    -26.95025680 [mEh]     -16.91154146 [kcal/mol]     -70.75788947 [kJ/mol]

  Special recipe for scaled SAPT0 (see Manual):
    Electrostatics sSAPT0         -24.59667210 [mEh]     -15.43464477 [kcal/mol]     -64.57855371 [kJ/mol]
    Exchange sSAPT0                 3.98063676 [mEh]       2.49788728 [kcal/mol]      10.45116038 [kJ/mol]
    Induction sSAPT0               -3.99479746 [mEh]      -2.50677325 [kcal/mol]     -10.48833929 [kJ/mol]
    Dispersion sSAPT0              -3.07079512 [mEh]      -1.92695303 [kcal/mol]      -8.06237148 [kJ/mol]
  Total sSAPT0                    -27.68162792 [mEh]     -17.37048377 [kcal/mol]     -72.67810409 [kJ/mol]
  --------------------------------------------------------------------------------------------------------

*** Psi4 exiting successfully. Buy a developer a beer!
