                               Psi4 1.9 release

  ==> Input File <==

--------------------------------------------------------------------------
MEMORY 60 GB

molecule dimer {
0 1
O      0.000000     0.000000     0.000000
H      0.588538     0.756918     0.000000
H      0.588538    -0.756918     0.000000
--
-2 1
Br     3.563818     3.563818     0.000000
Br     3.563818    -3.563818     0.000000

units ang
no_reorient
no_com
symmetry c1
}

set {
basis        aug-cc-pVTZ
scf_type     df
}

energy("sapt2+")
--------------------------------------------------------------------------

  //              Dimer HF             //
    Molecular point group: c1
  Charge       = -2
  Multiplicity = 1
  Basis Set: AUG-CC-PVTZ
    Blend: AUG-CC-PVTZ
  Basis Set: (AUG-CC-PVTZ AUX)
    Blend: AUG-CC-PVTZ-JKFIT
  @DF-RHF Final Energy: -5221.07057258388886
    Total Energy =                      -5221.0705725838888611
 Dipole X            :       -486.1251852          473.6491499          -12.4760353
 Dipole Y            :         -0.0000000            0.0000000           -0.0000000
 Dipole Z            :         -0.0000000            0.0000000           -0.0000000
 Magnitude           :                                                   12.4760353
  //            Monomer A HF           //
    Molecular point group: c1
  Multiplicity = 1
  Basis Set: AUG-CC-PVTZ
    Blend: AUG-CC-PVTZ
  Basis Set: (AUG-CC-PVTZ AUX)
    Blend: AUG-CC-PVTZ-JKFIT
  @DF-RHF Final Energy:   -76.06049343031034
    Total Energy =                        -76.0604934303103448
  //            Monomer B HF           //
    Molecular point group: c1

    Geometry (in Angstrom), charge = -2, multiplicity = 1:

       Center              X                  Y                   Z               Mass
    ------------   -----------------  -----------------  -----------------  -----------------
      Gh(O)           0.000000000000     0.000000000000     0.000000000000    15.994914619570
      Gh(H)           0.588538000000     0.756918000000     0.000000000000     1.007825032230
      Gh(H)           0.588538000000    -0.756918000000     0.000000000000     1.007825032230
         BR           3.563818000000     3.563818000000     0.000000000000    78.918337600000
         BR           3.563818000000    -3.563818000000     0.000000000000    78.918337600000

  Charge       = -2
  Multiplicity = 1
  Basis Set: AUG-CC-PVTZ
    Blend: AUG-CC-PVTZ
  Basis Set: (AUG-CC-PVTZ AUX)
    Blend: AUG-CC-PVTZ-JKFIT

    Orbital Energies [Eh]
    ---------------------

    Doubly Occupied:

       1A   -489.647964     2A   -489.647964     3A    -64.788026
       4A    -64.788026     5A    -58.142500     6A    -58.142500
       7A    -58.142500     8A    -58.142500     9A    -58.142485
      10A    -58.142485    11A     -9.460396    12A     -9.460396
      13A     -7.067760    14A     -7.067760    15A     -7.067760
      16A     -7.067760    17A     -7.067668    18A     -7.067668
      19A     -2.809474    20A     -2.809474    21A     -2.809472
      22A     -2.809472    23A     -2.809362    24A     -2.809362
      25A     -2.809360    26A     -2.809360    27A     -2.809326
      28A     -2.809326    29A     -0.613368    30A     -0.613360
      31A     -0.066985    32A     -0.066977    33A     -0.066897
      34A     -0.066893    35A     -0.066407    36A     -0.065756

  @DF-RHF Final Energy: -5144.99427552068482

   => Energetics <=

    Nuclear Repulsion Energy =             90.9476975354451298
    One-Electron Energy =               -7374.3344448042853401
    Two-Electron Energy =                2138.3924717481559128
    Total Energy =                      -5144.9942755206839138
 Dipole X            :       -484.8992355          471.4247987          -13.4744368
 Dipole Y            :         -0.0000000            0.0000000           -0.0000000
 Dipole Z            :         -0.0000000            0.0000000           -0.0000000
 Magnitude           :                                                   13.4744368

    SAPT Results
  --------------------------------------------------------------------------------------------------------
    Electrostatics                -14.02600272 [mEh]      -8.80144959 [kcal/mol]     -36.82526507 [kJ/mol]
      Elst10,r                    -14.77754834 [mEh]      -9.27305158 [kcal/mol]     -38.79844781 [kJ/mol]
      Elst12,r                      0.75154561 [mEh]       0.47160199 [kcal/mol]       1.97318274 [kJ/mol]

    Exchange                        0.32215091 [mEh]       0.20215275 [kcal/mol]       0.84580709 [kJ/mol]
      Exch10                        0.26681672 [mEh]       0.16743002 [kcal/mol]       0.70052719 [kJ/mol]
      Exch10(S^2)                   0.26681517 [mEh]       0.16742905 [kcal/mol]       0.70052313 [kJ/mol]
      Exch11(S^2)                   0.01420745 [mEh]       0.00891531 [kcal/mol]       0.03730167 [kJ/mol]
      Exch12(S^2)                   0.04112673 [mEh]       0.02580742 [kcal/mol]       0.10797823 [kJ/mol]

    Induction                      -1.41492780 [mEh]      -0.88788060 [kcal/mol]      -3.71489243 [kJ/mol]
      Ind20,r                      -1.39503509 [mEh]      -0.87539773 [kcal/mol]      -3.66266412 [kJ/mol]
      Ind22                        -0.13683941 [mEh]      -0.08586803 [kcal/mol]      -0.35927182 [kJ/mol]
      Exch-Ind20,r                  0.15101271 [mEh]       0.09476191 [kcal/mol]       0.39648382 [kJ/mol]
      Exch-Ind22                    0.01481288 [mEh]       0.00929522 [kcal/mol]       0.03889122 [kJ/mol]
      delta HF,r (2)               -0.04887890 [mEh]      -0.03067197 [kcal/mol]      -0.12833153 [kJ/mol]

    Dispersion                     -0.78115409 [mEh]      -0.49018159 [kcal/mol]      -2.05091979 [kJ/mol]
      Disp20                       -0.71881714 [mEh]      -0.45106456 [kcal/mol]      -1.88725413 [kJ/mol]
      Disp21                        0.05313527 [mEh]       0.03334289 [kcal/mol]       0.13950664 [kJ/mol]
      Disp22 (SDQ)                 -0.00817002 [mEh]      -0.00512677 [kcal/mol]      -0.02145039 [kJ/mol]
      Disp22 (T)                   -0.13157593 [mEh]      -0.08256514 [kcal/mol]      -0.34545254 [kJ/mol]
      Est. Disp22 (T)              -0.14685342 [mEh]      -0.09215192 [kcal/mol]      -0.38556361 [kJ/mol]
      Exch-Disp20                   0.03955121 [mEh]       0.02481876 [kcal/mol]       0.10384170 [kJ/mol]

  Total HF                        -15.80363289 [mEh]      -9.91692936 [kcal/mol]     -41.49243245 [kJ/mol]
  Total SAPT0                     -16.48289881 [mEh]     -10.34317516 [kcal/mol]     -43.27584488 [kJ/mol]
  Total SAPT2                     -15.79804554 [mEh]      -9.91342324 [kcal/mol]     -41.47776285 [kJ/mol]
  Total SAPT2+                    -15.89993371 [mEh]      -9.97735904 [kcal/mol]     -41.74527021 [kJ/mol]

  Special recipe for scaled SAPT0 (see Manual):
    Electrostatics sSAPT0         -14.77754834 [mEh]      -9.27305158 [kcal/mol]     -38.79844781 [kJ/mol]
    Exchange sSAPT0                 0.26681672 [mEh]       0.16743002 [kcal/mol]       0.70052719 [kJ/mol]
    Induction sSAPT0               -1.29289865 [mEh]      -0.81130615 [kcal/mol]      -3.39450493 [kJ/mol]
    Dispersion sSAPT0              -0.67926523 [mEh]      -0.42624537 [kcal/mol]      -1.78341062 [kJ/mol]
  Total sSAPT0                    -16.48289550 [mEh]     -10.34317308 [kcal/mol]     -43.27583617 [kJ/mol]
  --------------------------------------------------------------------------------------------------------

*** Psi4 exiting successfully. Buy a developer a beer!
