                               Psi4 1.9 release

  ==> Input File <==

--------------------------------------------------------------------------
MEMORY 60 GB

molecule dimer {
0 1
O      0.000000     0.000000     0.000000
H      0.588538     0.756918     0.000000
H      0.588538    -0.756918     0.000000
--
-2 1
Br     4.751758     4.751758     0.000000
Br     4.751758    -4.751758     0.000000

units ang
no_reorient
no_com
symmetry c1
}

set {
basis        aug-cc-pVTZ
scf_type     df
}

energy("sapt2+")
--------------------------------------------------------------------------

  //              Dimer HF             //
    Molecular point group: c1
  Charge       = -2
  Multiplicity = 1
  Basis Set: AUG-CC-PVTZ
    Blend: AUG-CC-PVTZ
  Basis Set: (AUG-CC-PVTZ AUX)
    Blend: AUG-CC-PVTZ-JKFIT
  @DF-RHF Final Energy: -5221.08078953669701
    Total Energy =                      -5221.0807895366970115
 Dipole X            :       -647.8660403          630.7908377          -17.0752026
 Dipole Y            :          0.0000000            0.0000000            0.0000000
 Dipole Z            :          0.0000000            0.0000000            0.0000000
 Magnitude           :                                                   17.0752026
  //            Monomer A HF           //
    Molecular point group: c1
  Multiplicity = 1
  Basis Set: AUG-CC-PVTZ
    Blend: AUG-CC-PVTZ
  Basis Set: (AUG-CC-PVTZ AUX)
    Blend: AUG-CC-PVTZ-JKFIT
  @DF-RHF Final Energy:   -76.06048253166652
    Total Energy =                        -76.0604825316665227
  //            Monomer B HF           //
    Molecular point group: c1

    Geometry (in Angstrom), charge = -2, multiplicity = 1:

       Center              X                  Y                   Z               Mass
    ------------   -----------------  -----------------  -----------------  -----------------
      Gh(O)           0.000000000000     0.000000000000     0.000000000000    15.994914619570
      Gh(H)           0.588538000000     0.756918000000     0.000000000000     1.007825032230
      Gh(H)           0.588538000000    -0.756918000000     0.000000000000     1.007825032230
         BR           4.751758000000     4.751758000000     0.000000000000    78.918337600000
         BR           4.751758000000    -4.751758000000     0.000000000000    78.918337600000

  Charge       = -2
  Multiplicity = 1
  Basis Set: AUG-CC-PVTZ
    Blend: AUG-CC-PVTZ
  Basis Set: (AUG-CC-PVTZ AUX)
    Blend: AUG-CC-PVTZ-JKFIT

    Orbital Energies [Eh]
    ---------------------

    Doubly Occupied:

       1A   -489.665168     2A   -489.665168     3A    -64.805267
       4A    -64.805267     5A    -58.159735     6A    -58.159735
       7A    -58.159735     8A    -58.159735     9A    -58.159727
      10A    -58.159727    11A     -9.477688    12A     -9.477688
      13A     -7.085041    14A     -7.085041    15A     -7.085040
      16A     -7.085040    17A     -7.084995    18A     -7.084995
      19A     -2.826728    20A     -2.826728    21A     -2.826728
      22A     -2.826728    23A     -2.826673    24A     -2.826673
      25A     -2.826673    26A     -2.826673    27A     -2.826655
      28A     -2.826655    29A     -0.630799    30A     -0.630799
      31A     -0.084246    32A     -0.084246    33A     -0.084242
      34A     -0.084241    35A     -0.083904    36A     -0.083860

  @DF-RHF Final Energy: -5145.01201258747096

   => Energetics <=

    Nuclear Repulsion Energy =             68.2107635816838780
    One-Electron Energy =               -7327.6494621900219499
    Two-Electron Energy =                2114.4266860208672369
    Total Energy =                      -5145.0120125874709629
 Dipole X            :       -646.5285781          628.5664864          -17.9620917
 Dipole Y            :         -0.0000000            0.0000000           -0.0000000
 Dipole Z            :          0.0000000            0.0000000            0.0000000
 Magnitude           :                                                   17.9620917

    SAPT Results
  --------------------------------------------------------------------------------------------------------
    Electrostatics                 -7.50403694 [mEh]      -4.70885427 [kcal/mol]     -19.70184626 [kJ/mol]
      Elst10,r                     -7.93558032 [mEh]      -4.97965183 [kcal/mol]     -20.83486327 [kJ/mol]
      Elst12,r                      0.43154339 [mEh]       0.27079757 [kcal/mol]       1.13301701 [kJ/mol]

    Exchange                        0.00532442 [mEh]       0.00334112 [kcal/mol]       0.01397926 [kJ/mol]
      Exch10                        0.00405835 [mEh]       0.00254665 [kcal/mol]       0.01065519 [kJ/mol]
      Exch10(S^2)                   0.00405835 [mEh]       0.00254665 [kcal/mol]       0.01065519 [kJ/mol]
      Exch11(S^2)                   0.00019428 [mEh]       0.00012191 [kcal/mol]       0.00051009 [kJ/mol]
      Exch12(S^2)                   0.00107178 [mEh]       0.00067255 [kcal/mol]       0.00281397 [kJ/mol]

    Induction                      -0.39947220 [mEh]      -0.25067259 [kcal/mol]      -1.04881412 [kJ/mol]
      Ind20,r                      -0.36648057 [mEh]      -0.22997003 [kcal/mol]      -0.96219460 [kJ/mol]
      Ind22                        -0.03685095 [mEh]      -0.02312432 [kcal/mol]      -0.09675216 [kJ/mol]
      Exch-Ind20,r                  0.00272825 [mEh]       0.00171200 [kcal/mol]       0.00716302 [kJ/mol]
      Exch-Ind22                    0.00027434 [mEh]       0.00017215 [kcal/mol]       0.00072027 [kJ/mol]
      delta HF,r (2)                0.00085673 [mEh]       0.00053761 [kcal/mol]       0.00224935 [kJ/mol]

    Dispersion                     -0.10206921 [mEh]      -0.06404939 [kcal/mol]      -0.26798267 [kJ/mol]
      Disp20                       -0.09396443 [mEh]      -0.05896357 [kcal/mol]      -0.24670358 [kJ/mol]
      Disp21                        0.01120692 [mEh]       0.00703245 [kcal/mol]       0.02942377 [kJ/mol]
      Disp22 (SDQ)                 -0.00068537 [mEh]      -0.00043007 [kcal/mol]      -0.00179943 [kJ/mol]
      Disp22 (T)                   -0.01831754 [mEh]      -0.01149443 [kcal/mol]      -0.04809269 [kJ/mol]
      Est. Disp22 (T)              -0.01931413 [mEh]      -0.01211980 [kcal/mol]      -0.05070924 [kJ/mol]
      Exch-Disp20                   0.00068780 [mEh]       0.00043160 [kcal/mol]       0.00180582 [kJ/mol]

  Total HF                         -8.29441756 [mEh]      -5.20482560 [kcal/mol]     -21.77699030 [kJ/mol]
  Total SAPT0                      -8.38769419 [mEh]      -5.26335757 [kcal/mol]     -22.02188806 [kJ/mol]
  Total SAPT2                      -7.99146135 [mEh]      -5.01471771 [kcal/mol]     -20.98157888 [kJ/mol]
  Total SAPT2+                     -8.00025392 [mEh]      -5.02023513 [kcal/mol]     -21.00466379 [kJ/mol]

  Special recipe for scaled SAPT0 (see Manual):
    Electrostatics sSAPT0          -7.93558032 [mEh]      -4.97965183 [kcal/mol]     -20.83486327 [kJ/mol]
    Exchange sSAPT0                 0.00405835 [mEh]       0.00254665 [kcal/mol]       0.01065519 [kJ/mol]
    Induction sSAPT0               -0.36289558 [mEh]      -0.22772042 [kcal/mol]      -0.95278222 [kJ/mol]
    Dispersion sSAPT0              -0.09327663 [mEh]      -0.05853197 [kcal/mol]      -0.24489776 [kJ/mol]
  Total sSAPT0                     -8.38769419 [mEh]      -5.26335757 [kcal/mol]     -22.02188806 [kJ/mol]
  --------------------------------------------------------------------------------------------------------

*** Psi4 exiting successfully. Buy a developer a beer!
