                               Psi4 1.9 release

  ==> Input File <==

--------------------------------------------------------------------------
MEMORY 60 GB

molecule dimer {
1 1
Li     0.000000     0.000000     0.000000
--
0 1
O      0.778758    -0.677263     1.669262
H      0.156902    -1.291452     2.063438
H      1.726307    -1.001041     1.653786
O     -0.201146     1.717887    -0.567701
H     -0.877478     2.173081    -0.028194
H     -0.676930     1.554022    -1.382573
O      0.498720    -1.024337    -1.589394
H      0.287247    -0.644818    -2.452001
H      1.305141    -1.493530    -1.587149
O     -1.985305    -0.778725    -0.196160
H     -2.154204    -1.191439    -1.039674
H     -2.698583    -0.134123    -0.133709

units ang
no_reorient
no_com
symmetry c1
}

set {
basis        aug-cc-pVTZ
scf_type     df
}

energy("sapt2+")
--------------------------------------------------------------------------

  //              Dimer HF             //
    Molecular point group: c1
  Charge       = 1
  Multiplicity = 1
  Basis Set: AUG-CC-PVTZ
    Blend: AUG-CC-PVTZ
  Basis Set: (AUG-CC-PVTZ AUX)
    Blend: AUG-CC-PVTZ-JKFIT + DEF2-UNIVERSAL-JKFIT
  @DF-RHF Final Energy:  -311.61398371601956
    Total Energy =                       -311.6139837160195611
 Dipole X            :         18.5036206          -19.2815975           -0.7779770
 Dipole Y            :         14.8687129          -15.3612133           -0.4925003
 Dipole Z            :         14.7084298          -15.8321633           -1.1237335
 Magnitude           :                                                    1.4527841
  //            Monomer A HF           //
    Molecular point group: c1
  Multiplicity = 1
  Basis Set: AUG-CC-PVTZ
    Blend: AUG-CC-PVTZ
  Basis Set: (AUG-CC-PVTZ AUX)
    Blend: AUG-CC-PVTZ-JKFIT + DEF2-UNIVERSAL-JKFIT
  @DF-RHF Final Energy:    -7.23638490036637
    Total Energy =                         -7.2363849003663656
  //            Monomer B HF           //
    Molecular point group: c1

    Geometry (in Angstrom), charge = 0, multiplicity = 1:

       Center              X                  Y                   Z               Mass
    ------------   -----------------  -----------------  -----------------  -----------------
      Gh(LI)          0.000000000000     0.000000000000     0.000000000000     7.016003436600
         O            0.778758000000    -0.677263000000     1.669262000000    15.994914619570
         H            0.156902000000    -1.291452000000     2.063438000000     1.007825032230
         H            1.726307000000    -1.001041000000     1.653786000000     1.007825032230
         O           -0.201146000000     1.717887000000    -0.567701000000    15.994914619570
         H           -0.877478000000     2.173081000000    -0.028194000000     1.007825032230
         H           -0.676930000000     1.554022000000    -1.382573000000     1.007825032230
         O            0.498720000000    -1.024337000000    -1.589394000000    15.994914619570
         H            0.287247000000    -0.644818000000    -2.452001000000     1.007825032230
         H            1.305141000000    -1.493530000000    -1.587149000000     1.007825032230
         O           -1.985305000000    -0.778725000000    -0.196160000000    15.994914619570
         H           -2.154204000000    -1.191439000000    -1.039674000000     1.007825032230
         H           -2.698583000000    -0.134123000000    -0.133709000000     1.007825032230

  Charge       = 0
  Multiplicity = 1
  Basis Set: AUG-CC-PVTZ
    Blend: AUG-CC-PVTZ
  Basis Set: (AUG-CC-PVTZ AUX)
    Blend: AUG-CC-PVTZ-JKFIT + DEF2-UNIVERSAL-JKFIT

    Orbital Energies [Eh]
    ---------------------

    Doubly Occupied:

       1A    -20.546268     2A    -20.540912     3A    -20.536915
       4A    -20.531019     5A     -1.335651     6A     -1.330763
       7A     -1.317465     8A     -1.300866     9A     -0.720479
      10A     -0.692125    11A     -0.687835    12A     -0.674945
      13A     -0.569738    14A     -0.555131    15A     -0.546532
      16A     -0.524431    17A     -0.493630    18A     -0.488069
      19A     -0.468526    20A     -0.467416

  @DF-RHF Final Energy:  -304.21238989859819

   => Energetics <=

    Nuclear Repulsion Energy =            133.3805218800766283
    One-Electron Energy =                -686.5283848300127829
    Two-Electron Energy =                 248.9354730513378797
    Total Energy =                       -304.2123898985981896
 Dipole X            :         18.6558493          -19.2815975           -0.6257482
 Dipole Y            :         14.9678343          -15.3612133           -0.3933789
 Dipole Z            :         14.8855332          -15.8321633           -0.9466301
 Magnitude           :                                                    1.2010064

    SAPT Results
  --------------------------------------------------------------------------------------------------------
    Electrostatics               -141.65273602 [mEh]     -88.88843384 [kcal/mol]    -371.90920718 [kJ/mol]
      Elst10,r                   -151.74812791 [mEh]     -95.22338789 [kcal/mol]    -398.41465493 [kJ/mol]
      Elst12,r                     10.09539189 [mEh]       6.33495405 [kcal/mol]      26.50544775 [kJ/mol]

    Exchange                       48.22466355 [mEh]      30.26143325 [kcal/mol]     126.61383670 [kJ/mol]
      Exch10                       44.67542277 [mEh]      28.03425103 [kcal/mol]     117.29530631 [kJ/mol]
      Exch10(S^2)                  44.14608270 [mEh]      27.70208513 [kcal/mol]     115.90552416 [kJ/mol]
      Exch11(S^2)                  -0.66469675 [mEh]      -0.41710351 [kcal/mol]      -1.74516108 [kJ/mol]
      Exch12(S^2)                   4.21393753 [mEh]       2.64428572 [kcal/mol]      11.06369147 [kJ/mol]

    Induction                     -64.37608510 [mEh]     -40.39660329 [kcal/mol]    -169.01938815 [kJ/mol]
      Ind20,r                     -82.27328496 [mEh]     -51.62726575 [kcal/mol]    -216.00847990 [kJ/mol]
      Ind22                        -9.51959819 [mEh]      -5.97363805 [kcal/mol]     -24.99370161 [kJ/mol]
      Exch-Ind20,r                 28.34507766 [mEh]      17.78680477 [kcal/mol]      74.41999114 [kJ/mol]
      Exch-Ind22                    3.27972501 [mEh]       2.05805851 [kcal/mol]       8.61091682 [kJ/mol]
      delta HF,r (2)               -4.20800461 [mEh]      -2.64056276 [kcal/mol]     -11.04811459 [kJ/mol]

    Dispersion                     -3.10298735 [mEh]      -1.94715396 [kcal/mol]      -8.14689217 [kJ/mol]
      Disp20                       -3.06676318 [mEh]      -1.92442295 [kcal/mol]      -8.05178563 [kJ/mol]
      Disp21                       -0.13004185 [mEh]      -0.08160249 [kcal/mol]      -0.34142482 [kJ/mol]
      Disp22 (SDQ)                 -0.05481983 [mEh]      -0.03439996 [kcal/mol]      -0.14392944 [kJ/mol]
      Disp22 (T)                   -0.18338640 [mEh]      -0.11507670 [kcal/mol]      -0.48148093 [kJ/mol]
      Est. Disp22 (T)              -0.20845746 [mEh]      -0.13080903 [kcal/mol]      -0.54730500 [kJ/mol]
      Exch-Disp20                   0.35709497 [mEh]       0.22408048 [kcal/mol]       0.93755272 [kJ/mol]

  Total HF                       -165.20891705 [mEh]    -103.67016060 [kcal/mol]    -433.75595197 [kJ/mol]
  Total SAPT0                    -167.91858527 [mEh]    -105.37050308 [kcal/mol]    -440.87018488 [kJ/mol]
  Total SAPT2                    -160.51382578 [mEh]    -100.72394635 [kcal/mol]    -421.42899153 [kJ/mol]
  Total SAPT2+                   -160.90714492 [mEh]    -100.97075784 [kcal/mol]    -422.46165079 [kJ/mol]

  Special recipe for scaled SAPT0 (see Manual):
    Electrostatics sSAPT0        -151.74812791 [mEh]     -95.22338789 [kcal/mol]    -398.41465493 [kJ/mol]
    Exchange sSAPT0                44.67542277 [mEh]      28.03425103 [kcal/mol]     117.29530631 [kJ/mol]
    Induction sSAPT0              -57.10430965 [mEh]     -35.83349530 [kcal/mol]    -149.92734433 [kJ/mol]
    Dispersion sSAPT0              -2.69666817 [mEh]      -1.69218483 [kcal/mol]      -7.08010131 [kJ/mol]
  Total sSAPT0                   -166.87368296 [mEh]    -104.71481698 [kcal/mol]    -438.12679426 [kJ/mol]
  --------------------------------------------------------------------------------------------------------

*** Psi4 exiting successfully. Buy a developer a beer!
