                               Psi4 1.9 release

  ==> Input File <==

--------------------------------------------------------------------------
MEMORY 60 GB

molecule dimer {
1 1
Li     0.000000     0.000000     0.000000
--
0 1
O     -1.511539    -0.373056     1.444335
H     -2.171177    -0.773198     0.881789
H     -1.822922     0.301399     2.156054
O      1.489676     0.881894     1.248380
H      2.269207     0.733811     0.702855
H      1.792827     0.767859     2.219903
O     -1.062894     1.282392    -0.795663
H     -1.976557     1.447197    -0.506702
H     -1.068516     1.674872    -1.716630
O      0.712000    -1.014444    -1.465121
H      0.958402    -1.983537    -1.419085
H      0.828894    -0.834982    -2.421806

units ang
no_reorient
no_com
symmetry c1
}

set {
basis        aug-cc-pVTZ
scf_type     df
}

energy("sapt2+")
--------------------------------------------------------------------------

  //              Dimer HF             //
    Molecular point group: c1
  Charge       = 1
  Multiplicity = 1
  Basis Set: AUG-CC-PVTZ
    Blend: AUG-CC-PVTZ
  Basis Set: (AUG-CC-PVTZ AUX)
    Blend: AUG-CC-PVTZ-JKFIT + DEF2-UNIVERSAL-JKFIT
  @DF-RHF Final Energy:  -311.60366310961535
    Total Energy =                       -311.6036631096153542
 Dipole X            :          7.5147621           -7.8837446           -0.3689826
 Dipole Y            :        -14.2985695           14.2631029           -0.0354666
 Dipole Z            :         -6.9924988            6.3340332           -0.6584657
 Magnitude           :                                                    0.7556342
  //            Monomer A HF           //
    Molecular point group: c1
  Multiplicity = 1
  Basis Set: AUG-CC-PVTZ
    Blend: AUG-CC-PVTZ
  Basis Set: (AUG-CC-PVTZ AUX)
    Blend: AUG-CC-PVTZ-JKFIT + DEF2-UNIVERSAL-JKFIT
  @DF-RHF Final Energy:    -7.23638476851526
    Total Energy =                         -7.2363847685152578
  //            Monomer B HF           //
    Molecular point group: c1

    Geometry (in Angstrom), charge = 0, multiplicity = 1:

       Center              X                  Y                   Z               Mass
    ------------   -----------------  -----------------  -----------------  -----------------
      Gh(LI)          0.000000000000     0.000000000000     0.000000000000     7.016003436600
         O           -1.511539000000    -0.373056000000     1.444335000000    15.994914619570
         H           -2.171177000000    -0.773198000000     0.881789000000     1.007825032230
         H           -1.822922000000     0.301399000000     2.156054000000     1.007825032230
         O            1.489676000000     0.881894000000     1.248380000000    15.994914619570
         H            2.269207000000     0.733811000000     0.702855000000     1.007825032230
         H            1.792827000000     0.767859000000     2.219903000000     1.007825032230
         O           -1.062894000000     1.282392000000    -0.795663000000    15.994914619570
         H           -1.976557000000     1.447197000000    -0.506702000000     1.007825032230
         H           -1.068516000000     1.674872000000    -1.716630000000     1.007825032230
         O            0.712000000000    -1.014444000000    -1.465121000000    15.994914619570
         H            0.958402000000    -1.983537000000    -1.419085000000     1.007825032230
         H            0.828894000000    -0.834982000000    -2.421806000000     1.007825032230

  Charge       = 0
  Multiplicity = 1
  Basis Set: AUG-CC-PVTZ
    Blend: AUG-CC-PVTZ
  Basis Set: (AUG-CC-PVTZ AUX)
    Blend: AUG-CC-PVTZ-JKFIT + DEF2-UNIVERSAL-JKFIT

    Orbital Energies [Eh]
    ---------------------

    Doubly Occupied:

       1A    -20.551220     2A    -20.537942     3A    -20.533787
       4A    -20.532838     5A     -1.316401     6A     -1.306860
       7A     -1.297006     8A     -1.295325     9A     -0.691321
      10A     -0.671366    11A     -0.662904    12A     -0.661494
      13A     -0.564720    14A     -0.544204    15A     -0.529521
      16A     -0.517211    17A     -0.487125    18A     -0.474655
      19A     -0.465365    20A     -0.464598

  @DF-RHF Final Energy:  -304.19476252007956

   => Energetics <=

    Nuclear Repulsion Energy =            129.2914082634649446
    One-Electron Energy =                -678.7606113295701107
    Two-Electron Energy =                 245.2744405460255734
    Total Energy =                       -304.1947625200795642
 Dipole X            :          7.6164456           -7.8837446           -0.2672990
 Dipole Y            :        -14.4373040           14.2631029           -0.1742011
 Dipole Z            :         -6.9497275            6.3340332           -0.6156943
 Magnitude           :                                                    0.6934510

    SAPT Results
  --------------------------------------------------------------------------------------------------------
    Electrostatics               -137.63833574 [mEh]     -86.36935963 [kcal/mol]    -361.36940069 [kJ/mol]
      Elst10,r                   -150.24723092 [mEh]     -94.28156081 [kcal/mol]    -394.47405045 [kJ/mol]
      Elst12,r                     12.60889519 [mEh]       7.91220118 [kcal/mol]      33.10464976 [kJ/mol]

    Exchange                       36.75744030 [mEh]      23.06564202 [kcal/mol]      96.50664622 [kJ/mol]
      Exch10                       34.34113224 [mEh]      21.54938582 [kcal/mol]      90.16263029 [kJ/mol]
      Exch10(S^2)                  34.02468039 [mEh]      21.35080929 [kcal/mol]      89.33178606 [kJ/mol]
      Exch11(S^2)                  -0.46864593 [mEh]      -0.29407976 [kcal/mol]      -1.23042972 [kJ/mol]
      Exch12(S^2)                   2.88495399 [mEh]       1.81033596 [kcal/mol]       7.57444566 [kJ/mol]

    Induction                     -62.47330138 [mEh]     -39.20258847 [kcal/mol]    -164.02363017 [kJ/mol]
      Ind20,r                     -75.01825824 [mEh]     -47.07466775 [kcal/mol]    -196.96040986 [kJ/mol]
      Ind22                        -8.25794721 [mEh]      -5.18194011 [kcal/mol]     -21.68123742 [kJ/mol]
      Exch-Ind20,r                 21.75132941 [mEh]      13.64916527 [kcal/mol]      57.10810750 [kJ/mol]
      Exch-Ind22                    2.39436818 [mEh]       1.50248871 [kcal/mol]       6.28641278 [kJ/mol]
      delta HF,r (2)               -3.34279352 [mEh]      -2.09763460 [kcal/mol]      -8.77650317 [kJ/mol]

    Dispersion                     -2.64028570 [mEh]      -1.65680429 [kcal/mol]      -6.93206915 [kJ/mol]
      Disp20                       -2.61113945 [mEh]      -1.63851474 [kcal/mol]      -6.85554568 [kJ/mol]
      Disp21                       -0.08778034 [mEh]      -0.05508300 [kcal/mol]      -0.23046725 [kJ/mol]
      Disp22 (SDQ)                 -0.03921394 [mEh]      -0.02460712 [kcal/mol]      -0.10295617 [kJ/mol]
      Disp22 (T)                   -0.14679065 [mEh]      -0.09211252 [kcal/mol]      -0.38539879 [kJ/mol]
      Est. Disp22 (T)              -0.17350395 [mEh]      -0.10887537 [kcal/mol]      -0.45553456 [kJ/mol]
      Exch-Disp20                   0.27135198 [mEh]       0.17027594 [kcal/mol]       0.71243451 [kJ/mol]

  Total HF                       -172.51582102 [mEh]    -108.25531207 [kcal/mol]    -452.94022569 [kJ/mol]
  Total SAPT0                    -174.85560849 [mEh]    -109.72355087 [kcal/mol]    -459.08333685 [kJ/mol]
  Total SAPT2                    -165.69398428 [mEh]    -103.97454489 [kcal/mol]    -435.02949580 [kJ/mol]
  Total SAPT2+                   -165.99448251 [mEh]    -104.16311037 [kcal/mol]    -435.81845379 [kJ/mol]

  Special recipe for scaled SAPT0 (see Manual):
    Electrostatics sSAPT0        -150.24723092 [mEh]     -94.28156081 [kcal/mol]    -394.47405045 [kJ/mol]
    Exchange sSAPT0                34.34113224 [mEh]      21.54938582 [kcal/mol]      90.16263029 [kJ/mol]
    Induction sSAPT0              -55.99715532 [mEh]     -35.13874547 [kcal/mol]    -147.02051103 [kJ/mol]
    Dispersion sSAPT0              -2.33214558 [mEh]      -1.46344345 [kcal/mol]      -6.12304739 [kJ/mol]
  Total sSAPT0                   -174.23539958 [mEh]    -109.33436391 [kcal/mol]    -457.45497858 [kJ/mol]
  --------------------------------------------------------------------------------------------------------

*** Psi4 exiting successfully. Buy a developer a beer!
