                               Psi4 1.9 release

  ==> Input File <==

--------------------------------------------------------------------------
MEMORY 60 GB

molecule dimer {
1 1
Li     0.000000     0.000000     0.000000
--
0 1
O     -1.498553    -0.172311    -1.210425
H     -2.174307     0.521597    -1.476675
H     -1.991752    -1.002923    -1.332405
O     -0.367263     1.242081     1.322828
H     -0.175908     2.107081     0.882067
H     -0.029996     1.416719     2.241664
O      0.117002    -1.599248     1.214210
H     -0.543417    -1.979387     1.825647
H      0.867799    -2.228187     1.292257

units ang
no_reorient
no_com
symmetry c1
}

set {
basis        aug-cc-pVTZ
scf_type     df
}

energy("sapt2+")
--------------------------------------------------------------------------

  //              Dimer HF             //
    Molecular point group: c1
  Charge       = 1
  Multiplicity = 1
  Basis Set: AUG-CC-PVTZ
    Blend: AUG-CC-PVTZ
  Basis Set: (AUG-CC-PVTZ AUX)
    Blend: AUG-CC-PVTZ-JKFIT + DEF2-UNIVERSAL-JKFIT
  @DF-RHF Final Energy:  -235.53573170405139
    Total Energy =                       -235.5357317040513863
 Dipole X            :         33.4005873          -34.0870556           -0.6864683
 Dipole Y            :         10.0530298          -10.2062672           -0.1532374
 Dipole Z            :        -25.7503704           26.5420708            0.7917004
 Magnitude           :                                                    1.0590137
  //            Monomer A HF           //
    Molecular point group: c1
  Multiplicity = 1
  Basis Set: AUG-CC-PVTZ
    Blend: AUG-CC-PVTZ
  Basis Set: (AUG-CC-PVTZ AUX)
    Blend: AUG-CC-PVTZ-JKFIT + DEF2-UNIVERSAL-JKFIT
  @DF-RHF Final Energy:    -7.23638441175747
    Total Energy =                         -7.2363844117574656
  //            Monomer B HF           //
    Molecular point group: c1

    Geometry (in Angstrom), charge = 0, multiplicity = 1:

       Center              X                  Y                   Z               Mass
    ------------   -----------------  -----------------  -----------------  -----------------
      Gh(LI)          0.000000000000     0.000000000000     0.000000000000     7.016003436600
         O           -1.498553000000    -0.172311000000    -1.210425000000    15.994914619570
         H           -2.174307000000     0.521597000000    -1.476675000000     1.007825032230
         H           -1.991752000000    -1.002923000000    -1.332405000000     1.007825032230
         O           -0.367263000000     1.242081000000     1.322828000000    15.994914619570
         H           -0.175908000000     2.107081000000     0.882067000000     1.007825032230
         H           -0.029996000000     1.416719000000     2.241664000000     1.007825032230
         O            0.117002000000    -1.599248000000     1.214210000000    15.994914619570
         H           -0.543417000000    -1.979387000000     1.825647000000     1.007825032230
         H            0.867799000000    -2.228187000000     1.292257000000     1.007825032230

  Charge       = 0
  Multiplicity = 1
  Basis Set: AUG-CC-PVTZ
    Blend: AUG-CC-PVTZ
  Basis Set: (AUG-CC-PVTZ AUX)
    Blend: AUG-CC-PVTZ-JKFIT + DEF2-UNIVERSAL-JKFIT

    Orbital Energies [Eh]
    ---------------------

    Doubly Occupied:

       1A    -20.546851     2A    -20.546061     3A    -20.544815
       4A     -1.319294     5A     -1.312056     6A     -1.308705
       7A     -0.677623     8A     -0.670345     9A     -0.663084
      10A     -0.570195    11A     -0.549780    12A     -0.543337
      13A     -0.487432    14A     -0.478545    15A     -0.474557

  @DF-RHF Final Energy:  -228.15716735723987

   => Energetics <=

    Nuclear Repulsion Energy =             75.4257183883913314
    One-Electron Energy =                -465.7804109693551595
    Two-Electron Energy =                 162.1975252237239715
    Total Energy =                       -228.1571673572398709
 Dipole X            :         33.7647281          -34.0870556           -0.3223275
 Dipole Y            :         10.1105554          -10.2062672           -0.0957118
 Dipole Z            :        -26.0556655           26.5420708            0.4864053
 Magnitude           :                                                    0.5913086

    SAPT Results
  --------------------------------------------------------------------------------------------------------
    Electrostatics               -117.36633006 [mEh]     -73.64848402 [kcal/mol]    -308.14525712 [kJ/mol]
      Elst10,r                   -127.77102519 [mEh]     -80.17752878 [kcal/mol]    -335.46278042 [kJ/mol]
      Elst12,r                     10.40469513 [mEh]       6.52904477 [kcal/mol]      27.31752330 [kJ/mol]

    Exchange                       36.17825446 [mEh]      22.70219742 [kcal/mol]      94.98599400 [kJ/mol]
      Exch10                       33.84785151 [mEh]      21.23984749 [kcal/mol]      88.86752189 [kJ/mol]
      Exch10(S^2)                  33.54212735 [mEh]      21.04800268 [kcal/mol]      88.06484322 [kJ/mol]
      Exch11(S^2)                  -0.35788546 [mEh]      -0.22457651 [kcal/mol]      -0.93962813 [kJ/mol]
      Exch12(S^2)                   2.68828841 [mEh]       1.68692644 [kcal/mol]       7.05810024 [kJ/mol]

    Induction                     -52.87821070 [mEh]     -33.18157817 [kcal/mol]    -138.83172306 [kJ/mol]
      Ind20,r                     -67.36127254 [mEh]     -42.26983668 [kcal/mol]    -176.85699669 [kJ/mol]
      Ind22                        -6.88521743 [mEh]      -4.32053917 [kcal/mol]     -18.07713588 [kJ/mol]
      Exch-Ind20,r                 22.14749234 [mEh]      13.89776127 [kcal/mol]      58.14823313 [kJ/mol]
      Exch-Ind22                    2.26376811 [mEh]       1.42053593 [kcal/mol]       5.94352235 [kJ/mol]
      delta HF,r (2)               -3.04298117 [mEh]      -1.90949951 [kcal/mol]      -7.98934597 [kJ/mol]

    Dispersion                     -2.30710482 [mEh]      -1.44773013 [kcal/mol]      -6.05730288 [kJ/mol]
      Disp20                       -2.28487963 [mEh]      -1.43378361 [kcal/mol]      -5.99895063 [kJ/mol]
      Disp21                       -0.08381681 [mEh]      -0.05259584 [kcal/mol]      -0.22006099 [kJ/mol]
      Disp22 (SDQ)                 -0.03411246 [mEh]      -0.02140589 [kcal/mol]      -0.08956225 [kJ/mol]
      Disp22 (T)                   -0.12818405 [mEh]      -0.08043671 [kcal/mol]      -0.33654718 [kJ/mol]
      Est. Disp22 (T)              -0.15099351 [mEh]      -0.09474986 [kcal/mol]      -0.39643341 [kJ/mol]
      Exch-Disp20                   0.24669758 [mEh]       0.15480507 [kcal/mol]       0.64770441 [kJ/mol]

  Total HF                       -142.17993505 [mEh]     -89.21925623 [kcal/mol]    -373.29336806 [kJ/mol]
  Total SAPT0                    -144.21811710 [mEh]     -90.49823477 [kcal/mol]    -378.64461428 [kJ/mol]
  Total SAPT2                    -136.10446834 [mEh]     -85.40684331 [kcal/mol]    -357.34223241 [kJ/mol]
  Total SAPT2+                   -136.37339112 [mEh]     -85.57559490 [kcal/mol]    -358.04828907 [kJ/mol]

  Special recipe for scaled SAPT0 (see Manual):
    Electrostatics sSAPT0        -127.77102519 [mEh]     -80.17752878 [kcal/mol]    -335.46278042 [kJ/mol]
    Exchange sSAPT0                33.84785151 [mEh]      21.23984749 [kcal/mol]      88.86752189 [kJ/mol]
    Induction sSAPT0              -47.64562604 [mEh]     -29.89808173 [kcal/mol]    -125.09357394 [kJ/mol]
    Dispersion sSAPT0              -2.03137470 [mEh]      -1.27470687 [kcal/mol]      -5.33337354 [kJ/mol]
  Total sSAPT0                   -143.60017443 [mEh]     -90.11046989 [kcal/mol]    -377.02220601 [kJ/mol]
  --------------------------------------------------------------------------------------------------------

*** Psi4 exiting successfully. Buy a developer a beer!
