                               Psi4 1.9 release

  ==> Input File <==

--------------------------------------------------------------------------
MEMORY 60 GB

molecule dimer {
1 1
Li     0.000000     0.000000     0.000000
--
0 1
O      1.276765     0.545153     1.397121
H      1.439625    -0.293000     1.863141
H      1.756552     1.287598     1.849105
O      0.409922     1.229791    -1.545668
H      1.146667     1.129525    -2.203588
H     -0.234316     1.541034    -2.202116
O     -1.716144     0.282187     0.825118
H     -2.643062     0.455413     0.501701
H     -1.848891    -0.348811     1.525324
O      0.520377    -1.745389    -0.656277
H     -0.250082    -2.060907    -1.141392
H      0.808173    -2.502960    -0.080864

units ang
no_reorient
no_com
symmetry c1
}

set {
basis        aug-cc-pVTZ
scf_type     df
}

energy("sapt2+")
--------------------------------------------------------------------------

  //              Dimer HF             //
    Molecular point group: c1
  Charge       = 1
  Multiplicity = 1
  Basis Set: AUG-CC-PVTZ
    Blend: AUG-CC-PVTZ
  Basis Set: (AUG-CC-PVTZ AUX)
    Blend: AUG-CC-PVTZ-JKFIT + DEF2-UNIVERSAL-JKFIT
  @DF-RHF Final Energy:  -311.61703543955366
    Total Energy =                       -311.6170354395536606
 Dipole X            :         -8.2216981            7.7517057           -0.4699924
 Dipole Y            :         -4.0969270            3.2159888           -0.8809382
 Dipole Z            :         -0.4368809            0.5171481            0.0802672
 Magnitude           :                                                    1.0016924
  //            Monomer A HF           //
    Molecular point group: c1
  Multiplicity = 1
  Basis Set: AUG-CC-PVTZ
    Blend: AUG-CC-PVTZ
  Basis Set: (AUG-CC-PVTZ AUX)
    Blend: AUG-CC-PVTZ-JKFIT + DEF2-UNIVERSAL-JKFIT
  @DF-RHF Final Energy:    -7.23638490801156
    Total Energy =                         -7.2363849080115576
  //            Monomer B HF           //
    Molecular point group: c1

    Geometry (in Angstrom), charge = 0, multiplicity = 1:

       Center              X                  Y                   Z               Mass
    ------------   -----------------  -----------------  -----------------  -----------------
      Gh(LI)          0.000000000000     0.000000000000     0.000000000000     7.016003436600
         O            1.276765000000     0.545153000000     1.397121000000    15.994914619570
         H            1.439625000000    -0.293000000000     1.863141000000     1.007825032230
         H            1.756552000000     1.287598000000     1.849105000000     1.007825032230
         O            0.409922000000     1.229791000000    -1.545668000000    15.994914619570
         H            1.146667000000     1.129525000000    -2.203588000000     1.007825032230
         H           -0.234316000000     1.541034000000    -2.202116000000     1.007825032230
         O           -1.716144000000     0.282187000000     0.825118000000    15.994914619570
         H           -2.643062000000     0.455413000000     0.501701000000     1.007825032230
         H           -1.848891000000    -0.348811000000     1.525324000000     1.007825032230
         O            0.520377000000    -1.745389000000    -0.656277000000    15.994914619570
         H           -0.250082000000    -2.060907000000    -1.141392000000     1.007825032230
         H            0.808173000000    -2.502960000000    -0.080864000000     1.007825032230

  Charge       = 0
  Multiplicity = 1
  Basis Set: AUG-CC-PVTZ
    Blend: AUG-CC-PVTZ
  Basis Set: (AUG-CC-PVTZ AUX)
    Blend: AUG-CC-PVTZ-JKFIT + DEF2-UNIVERSAL-JKFIT

    Orbital Energies [Eh]
    ---------------------

    Doubly Occupied:

       1A    -20.543337     2A    -20.540191     3A    -20.535054
       4A    -20.529787     5A     -1.316515     6A     -1.314966
       7A     -1.307719     8A     -1.297932     9A     -0.683617
      10A     -0.676597    11A     -0.673536    12A     -0.643856
      13A     -0.564765    14A     -0.548096    15A     -0.545925
      16A     -0.521327    17A     -0.485792    18A     -0.473177
      19A     -0.468595    20A     -0.465358

  @DF-RHF Final Energy:  -304.20550186862459

   => Energetics <=

    Nuclear Repulsion Energy =            130.3315583164005886
    One-Electron Energy =                -680.8018273015960631
    Two-Electron Energy =                 246.2647671165709085
    Total Energy =                       -304.2055018686245944
 Dipole X            :         -8.2581117            7.7517057           -0.5064060
 Dipole Y            :         -4.0790794            3.2159888           -0.8630905
 Dipole Z            :         -0.4568148            0.5171481            0.0603334
 Magnitude           :                                                    1.0025031

    SAPT Results
  --------------------------------------------------------------------------------------------------------
    Electrostatics               -141.35330293 [mEh]     -88.70053674 [kcal/mol]    -371.12304570 [kJ/mol]
      Elst10,r                   -153.70421160 [mEh]     -96.45084894 [kcal/mol]    -403.55035197 [kJ/mol]
      Elst12,r                     12.35090868 [mEh]       7.75031220 [kcal/mol]      32.42730626 [kJ/mol]

    Exchange                       39.92105629 [mEh]      25.05084102 [kcal/mol]     104.81271884 [kJ/mol]
      Exch10                       37.12679019 [mEh]      23.29741258 [kcal/mol]      97.47637422 [kJ/mol]
      Exch10(S^2)                  36.75677915 [mEh]      23.06522714 [kcal/mol]      96.50491037 [kJ/mol]
      Exch11(S^2)                  -0.55943847 [mEh]      -0.35105294 [kcal/mol]      -1.46880550 [kJ/mol]
      Exch12(S^2)                   3.35370457 [mEh]       2.10448139 [kcal/mol]       8.80515012 [kJ/mol]

    Induction                     -64.69472559 [mEh]     -40.59655321 [kcal/mol]    -169.85597864 [kJ/mol]
      Ind20,r                     -78.70679814 [mEh]     -49.38926148 [kcal/mol]    -206.64467004 [kJ/mol]
      Ind22                        -8.74235721 [mEh]      -5.48591197 [kcal/mol]     -22.95305570 [kJ/mol]
      Exch-Ind20,r                 23.57752188 [mEh]      14.79511835 [kcal/mol]      61.90277517 [kJ/mol]
      Exch-Ind22                    2.61887313 [mEh]       1.64336770 [kcal/mol]       6.87585044 [kJ/mol]
      delta HF,r (2)               -3.44196525 [mEh]      -2.15986580 [kcal/mol]      -9.03687851 [kJ/mol]

    Dispersion                     -2.86920988 [mEh]      -1.80045638 [kcal/mol]      -7.53310951 [kJ/mol]
      Disp20                       -2.84076717 [mEh]      -1.78260831 [kcal/mol]      -7.45843317 [kJ/mol]
      Disp21                       -0.10288800 [mEh]      -0.06456320 [kcal/mol]      -0.27013241 [kJ/mol]
      Disp22 (SDQ)                 -0.04418669 [mEh]      -0.02772756 [kcal/mol]      -0.11601213 [kJ/mol]
      Disp22 (T)                   -0.16683630 [mEh]      -0.10469136 [kcal/mol]      -0.43802865 [kJ/mol]
      Est. Disp22 (T)              -0.19123163 [mEh]      -0.11999966 [kcal/mol]      -0.50207857 [kJ/mol]
      Exch-Disp20                   0.30986360 [mEh]       0.19444234 [kcal/mol]       0.81354677 [kJ/mol]

  Total HF                       -175.14866292 [mEh]    -109.90744530 [kcal/mol]    -459.85275114 [kJ/mol]
  Total SAPT0                    -177.67956649 [mEh]    -111.49561127 [kcal/mol]    -466.49763754 [kJ/mol]
  Total SAPT2                    -168.65787580 [mEh]    -105.83441489 [kcal/mol]    -442.81119191 [kJ/mol]
  Total SAPT2+                   -168.99618212 [mEh]    -106.04670531 [kcal/mol]    -443.69941502 [kJ/mol]

  Special recipe for scaled SAPT0 (see Manual):
    Electrostatics sSAPT0        -153.70421160 [mEh]     -96.45084894 [kcal/mol]    -403.55035197 [kJ/mol]
    Exchange sSAPT0                37.12679019 [mEh]      23.29741258 [kcal/mol]      97.47637422 [kJ/mol]
    Induction sSAPT0              -57.85202255 [mEh]     -36.30269223 [kcal/mol]    -151.89046429 [kJ/mol]
    Dispersion sSAPT0              -2.52145136 [mEh]      -1.58223461 [kcal/mol]      -6.62006962 [kJ/mol]
  Total sSAPT0                   -176.95089532 [mEh]    -111.03836321 [kcal/mol]    -464.58451166 [kJ/mol]
  --------------------------------------------------------------------------------------------------------

*** Psi4 exiting successfully. Buy a developer a beer!
