                               Psi4 1.9 release

  ==> Input File <==

--------------------------------------------------------------------------
MEMORY 60 GB

molecule dimer {
1 1
Li     0.000000     0.000000     0.000000
--
0 1
O      1.718350     0.176551     0.544897
H      2.140398     0.825322    -0.025747
H      1.574066     0.694093     1.420858
O     -0.618594     1.178660    -1.431382
H     -1.462932     1.491536    -1.765382
H     -0.007693     1.643578    -2.053149
O     -0.276860    -1.382086    -1.514478
H     -0.026138    -2.301828    -1.619613
H     -0.080953    -0.943301    -2.378795
O     -1.025451    -0.316730     1.697479
H     -1.827661    -0.788100     1.402480
H     -0.931749    -0.447840     2.626507

units ang
no_reorient
no_com
symmetry c1
}

set {
basis        aug-cc-pVTZ
scf_type     df
}

energy("sapt2+")
--------------------------------------------------------------------------

  //              Dimer HF             //
    Molecular point group: c1
  Charge       = 1
  Multiplicity = 1
  Basis Set: AUG-CC-PVTZ
    Blend: AUG-CC-PVTZ
  Basis Set: (AUG-CC-PVTZ AUX)
    Blend: AUG-CC-PVTZ-JKFIT + DEF2-UNIVERSAL-JKFIT
  @DF-RHF Final Energy:  -311.61196796393938
    Total Energy =                       -311.6119679639393780
 Dipole X            :          4.0341740           -4.2388485           -0.2046745
 Dipole Y            :          5.4051140           -4.8667629            0.5383511
 Dipole Z            :         14.4491363          -15.1569509           -0.7078146
 Magnitude           :                                                    0.9125322
  //            Monomer A HF           //
    Molecular point group: c1
  Multiplicity = 1
  Basis Set: AUG-CC-PVTZ
    Blend: AUG-CC-PVTZ
  Basis Set: (AUG-CC-PVTZ AUX)
    Blend: AUG-CC-PVTZ-JKFIT + DEF2-UNIVERSAL-JKFIT
  @DF-RHF Final Energy:    -7.23638487447272
    Total Energy =                         -7.2363848744727219
  //            Monomer B HF           //
    Molecular point group: c1

    Geometry (in Angstrom), charge = 0, multiplicity = 1:

       Center              X                  Y                   Z               Mass
    ------------   -----------------  -----------------  -----------------  -----------------
      Gh(LI)          0.000000000000     0.000000000000     0.000000000000     7.016003436600
         O            1.718350000000     0.176551000000     0.544897000000    15.994914619570
         H            2.140398000000     0.825322000000    -0.025747000000     1.007825032230
         H            1.574066000000     0.694093000000     1.420858000000     1.007825032230
         O           -0.618594000000     1.178660000000    -1.431382000000    15.994914619570
         H           -1.462932000000     1.491536000000    -1.765382000000     1.007825032230
         H           -0.007693000000     1.643578000000    -2.053149000000     1.007825032230
         O           -0.276860000000    -1.382086000000    -1.514478000000    15.994914619570
         H           -0.026138000000    -2.301828000000    -1.619613000000     1.007825032230
         H           -0.080953000000    -0.943301000000    -2.378795000000     1.007825032230
         O           -1.025451000000    -0.316730000000     1.697479000000    15.994914619570
         H           -1.827661000000    -0.788100000000     1.402480000000     1.007825032230
         H           -0.931749000000    -0.447840000000     2.626507000000     1.007825032230

  Charge       = 0
  Multiplicity = 1
  Basis Set: AUG-CC-PVTZ
    Blend: AUG-CC-PVTZ
  Basis Set: (AUG-CC-PVTZ AUX)
    Blend: AUG-CC-PVTZ-JKFIT + DEF2-UNIVERSAL-JKFIT

    Orbital Energies [Eh]
    ---------------------

    Doubly Occupied:

       1A    -20.552284     2A    -20.535444     3A    -20.532823
       4A    -20.529947     5A     -1.332055     6A     -1.320390
       7A     -1.304910     8A     -1.296186     9A     -0.694095
      10A     -0.683857    11A     -0.675190    12A     -0.655877
      13A     -0.573635    14A     -0.545501    15A     -0.539015
      16A     -0.532252    17A     -0.489063    18A     -0.478620
      19A     -0.470192    20A     -0.461921

  @DF-RHF Final Energy:  -304.20761665417388

   => Energetics <=

    Nuclear Repulsion Energy =            132.4994897066443684
    One-Electron Energy =                -685.0076876948016888
    Two-Electron Energy =                 248.3005813339834731
    Total Energy =                       -304.2076166541738758
 Dipole X            :          4.0162665           -4.2388485           -0.2225819
 Dipole Y            :          5.3868656           -4.8667629            0.5201027
 Dipole Z            :         14.5742480          -15.1569509           -0.5827029
 Magnitude           :                                                    0.8121528

    SAPT Results
  --------------------------------------------------------------------------------------------------------
    Electrostatics               -140.08955653 [mEh]     -87.90752390 [kcal/mol]    -367.80508001 [kJ/mol]
      Elst10,r                   -151.65893323 [mEh]     -95.16741739 [kcal/mol]    -398.18047434 [kJ/mol]
      Elst12,r                     11.56937670 [mEh]       7.25989348 [kcal/mol]      30.37539433 [kJ/mol]

    Exchange                       45.49890806 [mEh]      28.55099585 [kcal/mol]     119.45736664 [kJ/mol]
      Exch10                       42.24678186 [mEh]      26.51025585 [kcal/mol]     110.91891049 [kJ/mol]
      Exch10(S^2)                  41.77218574 [mEh]      26.21244229 [kcal/mol]     109.67285854 [kJ/mol]
      Exch11(S^2)                  -0.62844194 [mEh]      -0.39435327 [kcal/mol]      -1.64997410 [kJ/mol]
      Exch12(S^2)                   3.88056814 [mEh]       2.43509327 [kcal/mol]      10.18843025 [kJ/mol]

    Induction                     -64.74986578 [mEh]     -40.63115420 [kcal/mol]    -170.00074919 [kJ/mol]
      Ind20,r                     -80.96809660 [mEh]     -50.80824769 [kcal/mol]    -212.58170833 [kJ/mol]
      Ind22                        -9.21979923 [mEh]      -5.78551136 [kcal/mol]     -24.20657954 [kJ/mol]
      Exch-Ind20,r                 26.55861781 [mEh]      16.66578429 [kcal/mol]      69.72964146 [kJ/mol]
      Exch-Ind22                    3.02421737 [mEh]       1.89772505 [kcal/mol]       7.94008161 [kJ/mol]
      delta HF,r (2)               -4.14480514 [mEh]      -2.60090449 [kcal/mol]     -10.88218439 [kJ/mol]

    Dispersion                     -3.03033047 [mEh]      -1.90156108 [kcal/mol]      -7.95613157 [kJ/mol]
      Disp20                       -3.00311826 [mEh]      -1.88448516 [kcal/mol]      -7.88468590 [kJ/mol]
      Disp21                       -0.10852609 [mEh]      -0.06810115 [kcal/mol]      -0.28493520 [kJ/mol]
      Disp22 (SDQ)                 -0.05134682 [mEh]      -0.03222062 [kcal/mol]      -0.13481107 [kJ/mol]
      Disp22 (T)                   -0.17760164 [mEh]      -0.11144671 [kcal/mol]      -0.46629305 [kJ/mol]
      Est. Disp22 (T)              -0.20261659 [mEh]      -0.12714383 [kcal/mol]      -0.53196977 [kJ/mol]
      Exch-Disp20                   0.33527728 [mEh]       0.21038967 [kcal/mol]       0.88027037 [kJ/mol]

  Total HF                       -167.96643529 [mEh]    -105.40052942 [kcal/mol]    -440.99581511 [kJ/mol]
  Total SAPT0                    -170.63427627 [mEh]    -107.07462491 [kcal/mol]    -448.00023063 [kJ/mol]
  Total SAPT2                    -162.00835524 [mEh]    -101.66177774 [kcal/mol]    -425.35287808 [kJ/mol]
  Total SAPT2+                   -162.37084473 [mEh]    -101.88924334 [kcal/mol]    -426.30459412 [kJ/mol]

  Special recipe for scaled SAPT0 (see Manual):
    Electrostatics sSAPT0        -151.65893323 [mEh]     -95.16741739 [kcal/mol]    -398.18047434 [kJ/mol]
    Exchange sSAPT0                42.24678186 [mEh]      26.51025585 [kcal/mol]     110.91891049 [kJ/mol]
    Induction sSAPT0              -57.63872011 [mEh]     -36.16884292 [kcal/mol]    -151.33043880 [kJ/mol]
    Dispersion sSAPT0              -2.65628286 [mEh]      -1.66684266 [kcal/mol]      -6.97406968 [kJ/mol]
  Total sSAPT0                   -169.70715434 [mEh]    -106.49284712 [kcal/mol]    -445.56607233 [kJ/mol]
  --------------------------------------------------------------------------------------------------------

*** Psi4 exiting successfully. Buy a developer a beer!
