                               Psi4 1.9 release

  ==> Input File <==

--------------------------------------------------------------------------
MEMORY 60 GB

molecule dimer {
1 1
Li     0.000000     0.000000     0.000000
--
0 1
O      0.814019    -1.627178    -0.750547
H      0.515286    -1.888018    -1.619965
H      1.776685    -1.477163    -0.804751
O     -1.975126    -0.101471     0.138953
H     -2.662290     0.539971     0.324561
H     -2.473143    -0.849112    -0.390923
O      0.507752     1.359512    -1.147321
H      1.373943     1.714330    -1.381481
H      0.123691     1.025614    -1.939705
O      0.223291    -0.134039     1.993173
H      1.169830    -0.151311     2.130046
H      0.009339     0.679243     2.474654

units ang
no_reorient
no_com
symmetry c1
}

set {
basis        aug-cc-pVTZ
scf_type     df
}

energy("sapt2+")
--------------------------------------------------------------------------

  //              Dimer HF             //
    Molecular point group: c1
  Charge       = 1
  Multiplicity = 1
  Basis Set: AUG-CC-PVTZ
    Blend: AUG-CC-PVTZ
  Basis Set: (AUG-CC-PVTZ AUX)
    Blend: AUG-CC-PVTZ-JKFIT + DEF2-UNIVERSAL-JKFIT
  @DF-RHF Final Energy:  -311.61236845935446
    Total Energy =                       -311.6123684593544567
 Dipole X            :          7.2140407           -6.8165653            0.3974754
 Dipole Y            :          8.7135507           -8.3749903            0.3385604
 Dipole Z            :         -2.3863845            1.2595025           -1.1268820
 Magnitude           :                                                    1.2419634
  //            Monomer A HF           //
    Molecular point group: c1
  Multiplicity = 1
  Basis Set: AUG-CC-PVTZ
    Blend: AUG-CC-PVTZ
  Basis Set: (AUG-CC-PVTZ AUX)
    Blend: AUG-CC-PVTZ-JKFIT + DEF2-UNIVERSAL-JKFIT
  @DF-RHF Final Energy:    -7.23638492000115
    Total Energy =                         -7.2363849200011527
  //            Monomer B HF           //
    Molecular point group: c1

    Geometry (in Angstrom), charge = 0, multiplicity = 1:

       Center              X                  Y                   Z               Mass
    ------------   -----------------  -----------------  -----------------  -----------------
      Gh(LI)          0.000000000000     0.000000000000     0.000000000000     7.016003436600
         O            0.814019000000    -1.627178000000    -0.750547000000    15.994914619570
         H            0.515286000000    -1.888018000000    -1.619965000000     1.007825032230
         H            1.776685000000    -1.477163000000    -0.804751000000     1.007825032230
         O           -1.975126000000    -0.101471000000     0.138953000000    15.994914619570
         H           -2.662290000000     0.539971000000     0.324561000000     1.007825032230
         H           -2.473143000000    -0.849112000000    -0.390923000000     1.007825032230
         O            0.507752000000     1.359512000000    -1.147321000000    15.994914619570
         H            1.373943000000     1.714330000000    -1.381481000000     1.007825032230
         H            0.123691000000     1.025614000000    -1.939705000000     1.007825032230
         O            0.223291000000    -0.134039000000     1.993173000000    15.994914619570
         H            1.169830000000    -0.151311000000     2.130046000000     1.007825032230
         H            0.009339000000     0.679243000000     2.474654000000     1.007825032230

  Charge       = 0
  Multiplicity = 1
  Basis Set: AUG-CC-PVTZ
    Blend: AUG-CC-PVTZ
  Basis Set: (AUG-CC-PVTZ AUX)
    Blend: AUG-CC-PVTZ-JKFIT + DEF2-UNIVERSAL-JKFIT

    Orbital Energies [Eh]
    ---------------------

    Doubly Occupied:

       1A    -20.541247     2A    -20.540715     3A    -20.538547
       4A    -20.526609     5A     -1.328446     6A     -1.321813
       7A     -1.311482     8A     -1.300646     9A     -0.699551
      10A     -0.694120    11A     -0.662899    12A     -0.659418
      13A     -0.563632    14A     -0.551344    15A     -0.544868
      16A     -0.530529    17A     -0.497750    18A     -0.472407
      19A     -0.467931    20A     -0.465094

  @DF-RHF Final Energy:  -304.20771759270889

   => Energetics <=

    Nuclear Repulsion Energy =            132.1380443556267039
    One-Electron Energy =                -684.2534214340778362
    Two-Electron Energy =                 247.9076594857422720
    Total Energy =                       -304.2077175927088888
 Dipole X            :          7.2470439           -6.8165653            0.4304786
 Dipole Y            :          8.7513830           -8.3749903            0.3763927
 Dipole Z            :         -2.3111892            1.2595025           -1.0516867
 Magnitude           :                                                    1.1970916

    SAPT Results
  --------------------------------------------------------------------------------------------------------
    Electrostatics               -140.46392087 [mEh]     -88.14244107 [kcal/mol]    -368.78797343 [kJ/mol]
      Elst10,r                   -151.26431627 [mEh]     -94.91979151 [kcal/mol]    -397.14440766 [kJ/mol]
      Elst12,r                     10.80039541 [mEh]       6.77735044 [kcal/mol]      28.35643423 [kJ/mol]

    Exchange                       45.44348986 [mEh]      28.51622041 [kcal/mol]     119.31186620 [kJ/mol]
      Exch10                       42.13559695 [mEh]      26.44048627 [kcal/mol]     110.62699454 [kJ/mol]
      Exch10(S^2)                  41.66173525 [mEh]      26.14313356 [kcal/mol]     109.38287083 [kJ/mol]
      Exch11(S^2)                  -0.64866716 [mEh]      -0.40704479 [kcal/mol]      -1.70307539 [kJ/mol]
      Exch12(S^2)                   3.95656008 [mEh]       2.48277893 [kcal/mol]      10.38794705 [kJ/mol]

    Induction                     -65.43713900 [mEh]     -41.06242466 [kcal/mol]    -171.80518478 [kJ/mol]
      Ind20,r                     -81.79001888 [mEh]     -51.32401171 [kcal/mol]    -214.73966499 [kJ/mol]
      Ind22                        -9.33609994 [mEh]      -5.85849116 [kcal/mol]     -24.51192701 [kJ/mol]
      Exch-Ind20,r                 26.59888992 [mEh]      16.69105542 [kcal/mol]      69.83537587 [kJ/mol]
      Exch-Ind22                    3.03618825 [mEh]       1.90523689 [kcal/mol]       7.97151116 [kJ/mol]
      delta HF,r (2)               -3.94609836 [mEh]      -2.47621410 [kcal/mol]     -10.36047981 [kJ/mol]

    Dispersion                     -3.06615216 [mEh]      -1.92403953 [kcal/mol]      -8.05018140 [kJ/mol]
      Disp20                       -3.03825351 [mEh]      -1.90653286 [kcal/mol]      -7.97693348 [kJ/mol]
      Disp21                       -0.11895183 [mEh]      -0.07464340 [kcal/mol]      -0.31230799 [kJ/mol]
      Disp22 (SDQ)                 -0.05242256 [mEh]      -0.03289565 [kcal/mol]      -0.13763542 [kJ/mol]
      Disp22 (T)                   -0.17025852 [mEh]      -0.10683883 [kcal/mol]      -0.44701368 [kJ/mol]
      Est. Disp22 (T)              -0.20221895 [mEh]      -0.12689431 [kcal/mol]      -0.53092578 [kJ/mol]
      Exch-Disp20                   0.34569468 [mEh]       0.21692669 [kcal/mol]       0.90762126 [kJ/mol]

  Total HF                       -168.26594664 [mEh]    -105.58847563 [kcal/mol]    -441.78218205 [kJ/mol]
  Total SAPT0                    -170.95850547 [mEh]    -107.27808180 [kcal/mol]    -448.85149427 [kJ/mol]
  Total SAPT2                    -163.15012883 [mEh]    -102.37825149 [kcal/mol]    -428.35060422 [kJ/mol]
  Total SAPT2+                   -163.52372217 [mEh]    -102.61268485 [kcal/mol]    -429.33147340 [kJ/mol]

  Special recipe for scaled SAPT0 (see Manual):
    Electrostatics sSAPT0        -151.26431627 [mEh]     -94.91979151 [kcal/mol]    -397.14440766 [kJ/mol]
    Exchange sSAPT0                42.13559695 [mEh]      26.44048627 [kcal/mol]     110.62699454 [kJ/mol]
    Induction sSAPT0              -58.21925554 [mEh]     -36.53313440 [kcal/mol]    -152.85463435 [kJ/mol]
    Dispersion sSAPT0              -2.68062833 [mEh]      -1.68211967 [kcal/mol]      -7.03798870 [kJ/mol]
  Total sSAPT0                   -170.02860319 [mEh]    -106.69455931 [kcal/mol]    -446.41003617 [kJ/mol]
  --------------------------------------------------------------------------------------------------------

*** Psi4 exiting successfully. Buy a developer a beer!
