                               Psi4 1.9 release

  ==> Input File <==

--------------------------------------------------------------------------
MEMORY 60 GB

molecule dimer {
1 1
Li     0.000000     0.000000     0.000000
--
0 1
O     -0.266443     1.938313    -0.248340
H     -0.088316     2.610611    -0.926278
H     -0.885622     2.402495     0.339436
O     -1.305581    -1.041945    -1.192735
H     -1.614892    -1.898100    -0.899961
H     -0.845776    -1.154356    -2.000716
O      2.066109    -0.498860    -0.290542
H      2.623530    -0.650184     0.499648
H      2.518418    -0.862145    -1.036711
O     -0.099893    -0.786188     1.651962
H      0.363831    -1.589227     1.918952
H     -1.018921    -0.908196     1.943922

units ang
no_reorient
no_com
symmetry c1
}

set {
basis        aug-cc-pVTZ
scf_type     df
}

energy("sapt2+")
--------------------------------------------------------------------------

  //              Dimer HF             //
    Molecular point group: c1
  Charge       = 1
  Multiplicity = 1
  Basis Set: AUG-CC-PVTZ
    Blend: AUG-CC-PVTZ
  Basis Set: (AUG-CC-PVTZ AUX)
    Blend: AUG-CC-PVTZ-JKFIT + DEF2-UNIVERSAL-JKFIT
  @DF-RHF Final Energy:  -311.62837519332896
    Total Energy =                       -311.6283751933289636
 Dipole X            :         -7.7190064            7.9477875            0.2287811
 Dipole Y            :          8.8336001           -9.7482316           -0.9146315
 Dipole Z            :          1.5242015           -1.5097929            0.0144086
 Magnitude           :                                                    0.9429206
  //            Monomer A HF           //
    Molecular point group: c1
  Multiplicity = 1
  Basis Set: AUG-CC-PVTZ
    Blend: AUG-CC-PVTZ
  Basis Set: (AUG-CC-PVTZ AUX)
    Blend: AUG-CC-PVTZ-JKFIT + DEF2-UNIVERSAL-JKFIT
  @DF-RHF Final Energy:    -7.23638478414103
    Total Energy =                         -7.2363847841410323
  //            Monomer B HF           //
    Molecular point group: c1

    Geometry (in Angstrom), charge = 0, multiplicity = 1:

       Center              X                  Y                   Z               Mass
    ------------   -----------------  -----------------  -----------------  -----------------
      Gh(LI)          0.000000000000     0.000000000000     0.000000000000     7.016003436600
         O           -0.266443000000     1.938313000000    -0.248340000000    15.994914619570
         H           -0.088316000000     2.610611000000    -0.926278000000     1.007825032230
         H           -0.885622000000     2.402495000000     0.339436000000     1.007825032230
         O           -1.305581000000    -1.041945000000    -1.192735000000    15.994914619570
         H           -1.614892000000    -1.898100000000    -0.899961000000     1.007825032230
         H           -0.845776000000    -1.154356000000    -2.000716000000     1.007825032230
         O            2.066109000000    -0.498860000000    -0.290542000000    15.994914619570
         H            2.623530000000    -0.650184000000     0.499648000000     1.007825032230
         H            2.518418000000    -0.862145000000    -1.036711000000     1.007825032230
         O           -0.099893000000    -0.786188000000     1.651962000000    15.994914619570
         H            0.363831000000    -1.589227000000     1.918952000000     1.007825032230
         H           -1.018921000000    -0.908196000000     1.943922000000     1.007825032230

  Charge       = 0
  Multiplicity = 1
  Basis Set: AUG-CC-PVTZ
    Blend: AUG-CC-PVTZ
  Basis Set: (AUG-CC-PVTZ AUX)
    Blend: AUG-CC-PVTZ-JKFIT + DEF2-UNIVERSAL-JKFIT

    Orbital Energies [Eh]
    ---------------------

    Doubly Occupied:

       1A    -20.538626     2A    -20.536562     3A    -20.532306
       4A    -20.530234     5A     -1.324357     6A     -1.322045
       7A     -1.315206     8A     -1.309550     9A     -0.699703
      10A     -0.696020    11A     -0.681097    12A     -0.667049
      13A     -0.560586    14A     -0.545607    15A     -0.539310
      16A     -0.537678    17A     -0.489121    18A     -0.476748
      19A     -0.469918    20A     -0.466300

  @DF-RHF Final Energy:  -304.21807296428267

   => Energetics <=

    Nuclear Repulsion Energy =            129.7510553350269333
    One-Electron Energy =                -679.4622085555450894
    Two-Electron Energy =                 245.4930802562354586
    Total Energy =                       -304.2180729642826691
 Dipole X            :         -7.7476366            7.9477875            0.2001509
 Dipole Y            :          8.9493763           -9.7482316           -0.7988552
 Dipole Z            :          1.4783026           -1.5097929           -0.0314903
 Magnitude           :                                                    0.8241491

    SAPT Results
  --------------------------------------------------------------------------------------------------------
    Electrostatics               -142.66910951 [mEh]     -89.52621783 [kcal/mol]    -374.57769541 [kJ/mol]
      Elst10,r                   -154.48175725 [mEh]     -96.93876620 [kcal/mol]    -405.59179778 [kJ/mol]
      Elst12,r                     11.81264774 [mEh]       7.41254837 [kcal/mol]      31.01410237 [kJ/mol]

    Exchange                       39.00978337 [mEh]      24.47900863 [kcal/mol]     102.42017212 [kJ/mol]
      Exch10                       36.33729633 [mEh]      22.80199770 [kcal/mol]      95.40355838 [kJ/mol]
      Exch10(S^2)                  35.98427450 [mEh]      22.58047316 [kcal/mol]      94.47669970 [kJ/mol]
      Exch11(S^2)                  -0.49477954 [mEh]      -0.31047885 [kcal/mol]      -1.29904350 [kJ/mol]
      Exch12(S^2)                   3.16726657 [mEh]       1.98748978 [kcal/mol]       8.31565724 [kJ/mol]

    Induction                     -61.53368869 [mEh]     -38.61297261 [kcal/mol]    -161.55667740 [kJ/mol]
      Ind20,r                     -75.42105240 [mEh]     -47.32742490 [kcal/mol]    -198.01794579 [kJ/mol]
      Ind22                        -8.30484299 [mEh]      -5.21136765 [kcal/mol]     -21.80436225 [kJ/mol]
      Exch-Ind20,r                 23.10478199 [mEh]      14.49846959 [kcal/mol]      60.66159676 [kJ/mol]
      Exch-Ind22                    2.54413828 [mEh]       1.59647087 [kcal/mol]       6.67963414 [kJ/mol]
      delta HF,r (2)               -3.45671358 [mEh]      -2.16912052 [kcal/mol]      -9.07560025 [kJ/mol]

    Dispersion                     -2.70684844 [mEh]      -1.69857304 [kcal/mol]      -7.10682960 [kJ/mol]
      Disp20                       -2.67128425 [mEh]      -1.67625617 [kcal/mol]      -7.01345583 [kJ/mol]
      Disp21                       -0.10775186 [mEh]      -0.06761531 [kcal/mol]      -0.28290247 [kJ/mol]
      Disp22 (SDQ)                 -0.04167923 [mEh]      -0.02615411 [kcal/mol]      -0.10942879 [kJ/mol]
      Disp22 (T)                   -0.15010621 [mEh]      -0.09419307 [kcal/mol]      -0.39410380 [kJ/mol]
      Est. Disp22 (T)              -0.17677109 [mEh]      -0.11092553 [kcal/mol]      -0.46411243 [kJ/mol]
      Exch-Disp20                   0.29063798 [mEh]       0.18237809 [kcal/mol]       0.76306992 [kJ/mol]

  Total HF                       -173.91744491 [mEh]    -109.13484433 [kcal/mol]    -456.62018869 [kJ/mol]
  Total SAPT0                    -176.29809117 [mEh]    -110.62872242 [kcal/mol]    -462.87057460 [kJ/mol]
  Total SAPT2                    -167.57366110 [mEh]    -105.15405990 [kcal/mol]    -439.96458661 [kJ/mol]
  Total SAPT2+                   -167.89986328 [mEh]    -105.35875485 [kcal/mol]    -440.82103030 [kJ/mol]

  Special recipe for scaled SAPT0 (see Manual):
    Electrostatics sSAPT0        -154.48175725 [mEh]     -96.93876620 [kcal/mol]    -405.59179778 [kJ/mol]
    Exchange sSAPT0                36.33729633 [mEh]      22.80199770 [kcal/mol]      95.40355838 [kJ/mol]
    Induction sSAPT0              -55.08628628 [mEh]     -34.56716652 [kcal/mol]    -144.62902471 [kJ/mol]
    Dispersion sSAPT0              -2.37200821 [mEh]      -1.48845762 [kcal/mol]      -6.22770669 [kJ/mol]
  Total sSAPT0                   -175.60275541 [mEh]    -110.19239264 [kcal/mol]    -461.04497081 [kJ/mol]
  --------------------------------------------------------------------------------------------------------

*** Psi4 exiting successfully. Buy a developer a beer!
