                               Psi4 1.9 release

  ==> Input File <==

--------------------------------------------------------------------------
MEMORY 60 GB

molecule dimer {
1 1
Li     0.000000     0.000000     0.000000
--
0 1
O     -1.588684    -0.034020     1.157610
H     -1.734204     0.297682     2.041051
H     -2.231280    -0.760891     1.129331
O      0.752858    -1.834769    -0.351999
H      0.203711    -2.620276    -0.124323
H      1.157037    -2.060091    -1.215316
O      0.239663     0.677904    -1.813970
H      0.022632     0.033005    -2.467301
H     -0.269429     1.542115    -2.063452

units ang
no_reorient
no_com
symmetry c1
}

set {
basis        aug-cc-pVTZ
scf_type     df
}

energy("sapt2+")
--------------------------------------------------------------------------

  //              Dimer HF             //
    Molecular point group: c1
  Charge       = 1
  Multiplicity = 1
  Basis Set: AUG-CC-PVTZ
    Blend: AUG-CC-PVTZ
  Basis Set: (AUG-CC-PVTZ AUX)
    Blend: AUG-CC-PVTZ-JKFIT + DEF2-UNIVERSAL-JKFIT
  @DF-RHF Final Energy:  -235.53756744213942
    Total Energy =                       -235.5375674421394194
 Dipole X            :         13.1424383          -14.4012948           -1.2588564
 Dipole Y            :         23.7738938          -24.7469765           -0.9730827
 Dipole Z            :         19.7413530          -20.3464582           -0.6051052
 Magnitude           :                                                    1.7022813
  //            Monomer A HF           //
    Molecular point group: c1
  Multiplicity = 1
  Basis Set: AUG-CC-PVTZ
    Blend: AUG-CC-PVTZ
  Basis Set: (AUG-CC-PVTZ AUX)
    Blend: AUG-CC-PVTZ-JKFIT + DEF2-UNIVERSAL-JKFIT
  @DF-RHF Final Energy:    -7.23638436762884
    Total Energy =                         -7.2363843676288422
  //            Monomer B HF           //
    Molecular point group: c1

    Geometry (in Angstrom), charge = 0, multiplicity = 1:

       Center              X                  Y                   Z               Mass
    ------------   -----------------  -----------------  -----------------  -----------------
      Gh(LI)          0.000000000000     0.000000000000     0.000000000000     7.016003436600
         O           -1.588684000000    -0.034020000000     1.157610000000    15.994914619570
         H           -1.734204000000     0.297682000000     2.041051000000     1.007825032230
         H           -2.231280000000    -0.760891000000     1.129331000000     1.007825032230
         O            0.752858000000    -1.834769000000    -0.351999000000    15.994914619570
         H            0.203711000000    -2.620276000000    -0.124323000000     1.007825032230
         H            1.157037000000    -2.060091000000    -1.215316000000     1.007825032230
         O            0.239663000000     0.677904000000    -1.813970000000    15.994914619570
         H            0.022632000000     0.033005000000    -2.467301000000     1.007825032230
         H           -0.269429000000     1.542115000000    -2.063452000000     1.007825032230

  Charge       = 0
  Multiplicity = 1
  Basis Set: AUG-CC-PVTZ
    Blend: AUG-CC-PVTZ
  Basis Set: (AUG-CC-PVTZ AUX)
    Blend: AUG-CC-PVTZ-JKFIT + DEF2-UNIVERSAL-JKFIT

    Orbital Energies [Eh]
    ---------------------

    Doubly Occupied:

       1A    -20.552795     2A    -20.551286     3A    -20.547005
       4A     -1.336709     5A     -1.321636     6A     -1.314101
       7A     -0.691181     8A     -0.688031     9A     -0.679184
      10A     -0.573714    11A     -0.559670    12A     -0.545340
      13A     -0.494266    14A     -0.490479    15A     -0.477830

  @DF-RHF Final Energy:  -228.15949515525642

   => Energetics <=

    Nuclear Repulsion Energy =             73.6101410275652626
    One-Electron Energy =                -461.8928161077015488
    Two-Electron Energy =                 160.1231799248798779
    Total Energy =                       -228.1594951552564225
 Dipole X            :         13.3501849          -14.4012948           -1.0511099
 Dipole Y            :         24.0197599          -24.7469765           -0.7272166
 Dipole Z            :         19.9664845          -20.3464582           -0.3799737
 Magnitude           :                                                    1.3334376

    SAPT Results
  --------------------------------------------------------------------------------------------------------
    Electrostatics               -116.79067446 [mEh]     -73.28725467 [kcal/mol]    -306.63387355 [kJ/mol]
      Elst10,r                   -125.79578180 [mEh]     -78.93804484 [kcal/mol]    -330.27677961 [kJ/mol]
      Elst12,r                      9.00510734 [mEh]       5.65079017 [kcal/mol]      23.64290606 [kJ/mol]

    Exchange                       31.45330850 [mEh]      19.73724907 [kcal/mol]      82.58065010 [kJ/mol]
      Exch10                       29.08743996 [mEh]      18.25264415 [kcal/mol]      76.36906311 [kJ/mol]
      Exch10(S^2)                  28.86130419 [mEh]      18.11074181 [kcal/mol]      75.77534372 [kJ/mol]
      Exch11(S^2)                  -0.30289695 [mEh]      -0.19007071 [kcal/mol]      -0.79525584 [kJ/mol]
      Exch12(S^2)                   2.66876549 [mEh]       1.67467563 [kcal/mol]       7.00684284 [kJ/mol]

    Induction                     -49.45019456 [mEh]     -31.03046556 [kcal/mol]    -129.83146792 [kJ/mol]
      Ind20,r                     -62.42586726 [mEh]     -39.17282311 [kcal/mol]    -163.89909190 [kJ/mol]
      Ind22                        -6.56230956 [mEh]      -4.11791142 [kcal/mol]     -17.22934136 [kJ/mol]
      Exch-Ind20,r                 19.89782898 [mEh]      12.48607619 [kcal/mol]      52.24174279 [kJ/mol]
      Exch-Ind22                    2.09169242 [mEh]       1.31255681 [kcal/mol]       5.49173769 [kJ/mol]
      delta HF,r (2)               -2.45153914 [mEh]      -1.53836404 [kcal/mol]      -6.43651513 [kJ/mol]

    Dispersion                     -2.01110779 [mEh]      -1.26198919 [kcal/mol]      -5.28016278 [kJ/mol]
      Disp20                       -1.96906468 [mEh]      -1.23560674 [kcal/mol]      -5.16977860 [kJ/mol]
      Disp21                       -0.09203233 [mEh]      -0.05775116 [kcal/mol]      -0.24163086 [kJ/mol]
      Disp22 (SDQ)                 -0.03362820 [mEh]      -0.02110201 [kcal/mol]      -0.08829082 [kJ/mol]
      Disp22 (T)                   -0.11450938 [mEh]      -0.07185572 [kcal/mol]      -0.30064434 [kJ/mol]
      Est. Disp22 (T)              -0.13413832 [mEh]      -0.08417307 [kcal/mol]      -0.35218010 [kJ/mol]
      Exch-Disp20                   0.21775574 [mEh]       0.13664379 [kcal/mol]       0.57171761 [kJ/mol]

  Total HF                       -141.68791925 [mEh]     -88.91051165 [kcal/mol]    -372.00158075 [kJ/mol]
  Total SAPT0                    -143.43922820 [mEh]     -90.00947461 [kcal/mol]    -376.59964175 [kJ/mol]
  Total SAPT2                    -136.53886946 [mEh]     -85.67943412 [kcal/mol]    -358.48275237 [kJ/mol]
  Total SAPT2+                   -136.79866831 [mEh]     -85.84246036 [kcal/mol]    -359.16485415 [kJ/mol]

  Special recipe for scaled SAPT0 (see Manual):
    Electrostatics sSAPT0        -125.79578180 [mEh]     -78.93804484 [kcal/mol]    -330.27677961 [kJ/mol]
    Exchange sSAPT0                29.08743996 [mEh]      18.25264415 [kcal/mol]      76.36906311 [kJ/mol]
    Induction sSAPT0              -44.50818930 [mEh]     -27.92931045 [kcal/mol]    -116.85623491 [kJ/mol]
    Dispersion sSAPT0              -1.74615022 [mEh]      -1.09572580 [kcal/mol]      -4.58451676 [kJ/mol]
  Total sSAPT0                   -142.96268135 [mEh]     -89.71043694 [kcal/mol]    -375.34846818 [kJ/mol]
  --------------------------------------------------------------------------------------------------------

*** Psi4 exiting successfully. Buy a developer a beer!
