                               Psi4 1.9 release

  ==> Input File <==

--------------------------------------------------------------------------
MEMORY 60 GB

molecule dimer {
1 1
Li     0.000000     0.000000     0.000000
--
0 1
O      1.871880     0.461571     0.368550
H      2.285974     0.571186    -0.568959
H      2.640293     0.187905     0.999170
O     -0.434010     0.027323    -1.814838
H     -1.386091     0.043525    -1.966203
H     -0.179400     0.553937    -2.571507
O     -0.248199    -1.804611     0.671574
H      0.614937    -2.214034     0.676546
H     -0.801980    -2.158788    -0.016634
O     -1.170794     0.970161     1.468626
H     -0.562692     1.300187     2.160833
H     -1.660722     0.184687     1.808510

units ang
no_reorient
no_com
symmetry c1
}

set {
basis        aug-cc-pVTZ
scf_type     df
}

energy("sapt2+")
--------------------------------------------------------------------------

  //              Dimer HF             //
    Molecular point group: c1
  Charge       = 1
  Multiplicity = 1
  Basis Set: AUG-CC-PVTZ
    Blend: AUG-CC-PVTZ
  Basis Set: (AUG-CC-PVTZ AUX)
    Blend: AUG-CC-PVTZ-JKFIT + DEF2-UNIVERSAL-JKFIT
  @DF-RHF Final Energy:  -311.60668962434522
    Total Energy =                       -311.6066896243452220
 Dipole X            :         -1.3744618            2.0812215            0.7067597
 Dipole Y            :          7.4774216           -8.1179667           -0.6405451
 Dipole Z            :        -12.0511941           11.4764050           -0.5747891
 Magnitude           :                                                    1.1136381
  //            Monomer A HF           //
    Molecular point group: c1
  Multiplicity = 1
  Basis Set: AUG-CC-PVTZ
    Blend: AUG-CC-PVTZ
  Basis Set: (AUG-CC-PVTZ AUX)
    Blend: AUG-CC-PVTZ-JKFIT + DEF2-UNIVERSAL-JKFIT
  @DF-RHF Final Energy:    -7.23638487155944
    Total Energy =                         -7.2363848715594354
  //            Monomer B HF           //
    Molecular point group: c1

    Geometry (in Angstrom), charge = 0, multiplicity = 1:

       Center              X                  Y                   Z               Mass
    ------------   -----------------  -----------------  -----------------  -----------------
      Gh(LI)          0.000000000000     0.000000000000     0.000000000000     7.016003436600
         O            1.871880000000     0.461571000000     0.368550000000    15.994914619570
         H            2.285974000000     0.571186000000    -0.568959000000     1.007825032230
         H            2.640293000000     0.187905000000     0.999170000000     1.007825032230
         O           -0.434010000000     0.027323000000    -1.814838000000    15.994914619570
         H           -1.386091000000     0.043525000000    -1.966203000000     1.007825032230
         H           -0.179400000000     0.553937000000    -2.571507000000     1.007825032230
         O           -0.248199000000    -1.804611000000     0.671574000000    15.994914619570
         H            0.614937000000    -2.214034000000     0.676546000000     1.007825032230
         H           -0.801980000000    -2.158788000000    -0.016634000000     1.007825032230
         O           -1.170794000000     0.970161000000     1.468626000000    15.994914619570
         H           -0.562692000000     1.300187000000     2.160833000000     1.007825032230
         H           -1.660722000000     0.184687000000     1.808510000000     1.007825032230

  Charge       = 0
  Multiplicity = 1
  Basis Set: AUG-CC-PVTZ
    Blend: AUG-CC-PVTZ
  Basis Set: (AUG-CC-PVTZ AUX)
    Blend: AUG-CC-PVTZ-JKFIT + DEF2-UNIVERSAL-JKFIT

    Orbital Energies [Eh]
    ---------------------

    Doubly Occupied:

       1A    -20.556581     2A    -20.552003     3A    -20.531027
       4A    -20.523516     5A     -1.339539     6A     -1.319894
       7A     -1.295823     8A     -1.292645     9A     -0.704216
      10A     -0.684473    11A     -0.669387    12A     -0.660918
      13A     -0.580114    14A     -0.547518    15A     -0.539149
      16A     -0.525815    17A     -0.492715    18A     -0.487019
      19A     -0.471274    20A     -0.457607

  @DF-RHF Final Energy:  -304.20779991254591

   => Energetics <=

    Nuclear Repulsion Energy =            131.2786901624830307
    One-Electron Energy =                -682.5105029906687832
    Two-Electron Energy =                 247.0240129156398439
    Total Energy =                       -304.2077999125459087
 Dipole X            :         -1.4715331            2.0812215            0.6096884
 Dipole Y            :          7.5899486           -8.1179667           -0.5280181
 Dipole Z            :        -12.0963126           11.4764050           -0.6199075
 Magnitude           :                                                    1.0172554

    SAPT Results
  --------------------------------------------------------------------------------------------------------
    Electrostatics               -134.27509658 [mEh]     -84.25889519 [kcal/mol]    -352.53921749 [kJ/mol]
      Elst10,r                   -144.51967792 [mEh]     -90.68746704 [kcal/mol]    -379.43636209 [kJ/mol]
      Elst12,r                     10.24458134 [mEh]       6.42857185 [kcal/mol]      26.89714460 [kJ/mol]

    Exchange                       43.86173521 [mEh]      27.52365438 [kcal/mol]     115.15896993 [kJ/mol]
      Exch10                       40.52098693 [mEh]      25.42730319 [kcal/mol]     106.38783653 [kJ/mol]
      Exch10(S^2)                  40.08280870 [mEh]      25.15234219 [kcal/mol]     105.23739973 [kJ/mol]
      Exch11(S^2)                  -0.62717803 [mEh]      -0.39356015 [kcal/mol]      -1.64665568 [kJ/mol]
      Exch12(S^2)                   3.96792631 [mEh]       2.48991135 [kcal/mol]      10.41778909 [kJ/mol]

    Induction                     -64.83711374 [mEh]     -40.68590312 [kcal/mol]    -170.22981867 [kJ/mol]
      Ind20,r                     -80.51315152 [mEh]     -50.52276534 [kcal/mol]    -211.38725019 [kJ/mol]
      Ind22                        -9.33381769 [mEh]      -5.85705903 [kcal/mol]     -24.50593496 [kJ/mol]
      Exch-Ind20,r                 25.90249595 [mEh]      16.25406160 [kcal/mol]      68.00699375 [kJ/mol]
      Exch-Ind22                    3.00285320 [mEh]       1.88431883 [kcal/mol]       7.88399000 [kJ/mol]
      delta HF,r (2)               -3.89549368 [mEh]      -2.44445919 [kcal/mol]     -10.22761726 [kJ/mol]

    Dispersion                     -2.96969887 [mEh]      -1.86351417 [kcal/mol]      -7.79694330 [kJ/mol]
      Disp20                       -2.93372724 [mEh]      -1.84094164 [kcal/mol]      -7.70249981 [kJ/mol]
      Disp21                       -0.11660358 [mEh]      -0.07316985 [kcal/mol]      -0.30614266 [kJ/mol]
      Disp22 (SDQ)                 -0.05290093 [mEh]      -0.03319583 [kcal/mol]      -0.13889136 [kJ/mol]
      Disp22 (T)                   -0.16699424 [mEh]      -0.10479047 [kcal/mol]      -0.43844332 [kJ/mol]
      Est. Disp22 (T)              -0.19782896 [mEh]      -0.12413955 [kcal/mol]      -0.51939987 [kJ/mol]
      Exch-Disp20                   0.33136184 [mEh]       0.20793270 [kcal/mol]       0.86999040 [kJ/mol]

  Total HF                       -162.50484024 [mEh]    -101.97332679 [kcal/mol]    -426.65639927 [kJ/mol]
  Total SAPT0                    -165.10720564 [mEh]    -103.60633573 [kcal/mol]    -433.48890868 [kJ/mol]
  Total SAPT2                    -157.85284050 [mEh]     -99.05415288 [kcal/mol]    -414.44257564 [kJ/mol]
  Total SAPT2+                   -158.22017397 [mEh]     -99.28465811 [kcal/mol]    -415.40700952 [kJ/mol]

  Special recipe for scaled SAPT0 (see Manual):
    Electrostatics sSAPT0        -144.51967792 [mEh]     -90.68746704 [kcal/mol]    -379.43636209 [kJ/mol]
    Exchange sSAPT0                40.52098693 [mEh]      25.42730319 [kcal/mol]     106.38783653 [kJ/mol]
    Induction sSAPT0              -57.64734437 [mEh]     -36.17425473 [kcal/mol]    -151.35308180 [kJ/mol]
    Dispersion sSAPT0              -2.59137900 [mEh]      -1.62611487 [kcal/mol]      -6.80366462 [kJ/mol]
  Total sSAPT0                   -164.23741436 [mEh]    -103.06053346 [kcal/mol]    -431.20527198 [kJ/mol]
  --------------------------------------------------------------------------------------------------------

*** Psi4 exiting successfully. Buy a developer a beer!
