                               Psi4 1.9 release

  ==> Input File <==

--------------------------------------------------------------------------
MEMORY 60 GB

molecule dimer {
1 1
Li     0.000000     0.000000     0.000000
--
0 1
O      0.929126    -1.519541     0.562943
H      0.754313    -1.902667     1.397259
H      1.807708    -1.139414     0.634185
O     -0.504010     0.489688    -1.758484
H     -0.791966    -0.159959    -2.448101
H     -0.336521     1.310441    -2.247888
O      0.902574     1.789651     0.523627
H      1.832881     2.030759     0.319652
H      0.670851     2.026998     1.405913
O     -1.475233     0.100022     1.458728
H     -1.332384     0.611866     2.288554
H     -2.406648     0.065706     1.327701

units ang
no_reorient
no_com
symmetry c1
}

set {
basis        aug-cc-pVTZ
scf_type     df
}

energy("sapt2+")
--------------------------------------------------------------------------

  //              Dimer HF             //
    Molecular point group: c1
  Charge       = 1
  Multiplicity = 1
  Basis Set: AUG-CC-PVTZ
    Blend: AUG-CC-PVTZ
  Basis Set: (AUG-CC-PVTZ AUX)
    Blend: AUG-CC-PVTZ-JKFIT + DEF2-UNIVERSAL-JKFIT
  @DF-RHF Final Energy:  -311.62597995541682
    Total Energy =                       -311.6259799554168239
 Dipole X            :          2.1384348           -1.8559189            0.2825159
 Dipole Y            :        -17.4856952           18.3724654            0.8867702
 Dipole Z            :        -16.1373943           16.9542203            0.8168260
 Magnitude           :                                                    1.2382978
  //            Monomer A HF           //
    Molecular point group: c1
  Multiplicity = 1
  Basis Set: AUG-CC-PVTZ
    Blend: AUG-CC-PVTZ
  Basis Set: (AUG-CC-PVTZ AUX)
    Blend: AUG-CC-PVTZ-JKFIT + DEF2-UNIVERSAL-JKFIT
  @DF-RHF Final Energy:    -7.23638485425230
    Total Energy =                         -7.2363848542523028
  //            Monomer B HF           //
    Molecular point group: c1

    Geometry (in Angstrom), charge = 0, multiplicity = 1:

       Center              X                  Y                   Z               Mass
    ------------   -----------------  -----------------  -----------------  -----------------
      Gh(LI)          0.000000000000     0.000000000000     0.000000000000     7.016003436600
         O            0.929126000000    -1.519541000000     0.562943000000    15.994914619570
         H            0.754313000000    -1.902667000000     1.397259000000     1.007825032230
         H            1.807708000000    -1.139414000000     0.634185000000     1.007825032230
         O           -0.504010000000     0.489688000000    -1.758484000000    15.994914619570
         H           -0.791966000000    -0.159959000000    -2.448101000000     1.007825032230
         H           -0.336521000000     1.310441000000    -2.247888000000     1.007825032230
         O            0.902574000000     1.789651000000     0.523627000000    15.994914619570
         H            1.832881000000     2.030759000000     0.319652000000     1.007825032230
         H            0.670851000000     2.026998000000     1.405913000000     1.007825032230
         O           -1.475233000000     0.100022000000     1.458728000000    15.994914619570
         H           -1.332384000000     0.611866000000     2.288554000000     1.007825032230
         H           -2.406648000000     0.065706000000     1.327701000000     1.007825032230

  Charge       = 0
  Multiplicity = 1
  Basis Set: AUG-CC-PVTZ
    Blend: AUG-CC-PVTZ
  Basis Set: (AUG-CC-PVTZ AUX)
    Blend: AUG-CC-PVTZ-JKFIT + DEF2-UNIVERSAL-JKFIT

    Orbital Energies [Eh]
    ---------------------

    Doubly Occupied:

       1A    -20.542723     2A    -20.541629     3A    -20.532532
       4A    -20.523479     5A     -1.326608     6A     -1.323305
       7A     -1.317206     8A     -1.303193     9A     -0.708500
      10A     -0.691877    11A     -0.684909    12A     -0.667141
      13A     -0.561339    14A     -0.546153    15A     -0.541325
      16A     -0.529367    17A     -0.487539    18A     -0.483544
      19A     -0.468443    20A     -0.464596

  @DF-RHF Final Energy:  -304.21572929878215

   => Energetics <=

    Nuclear Repulsion Energy =            131.6851302892642366
    One-Electron Energy =                -683.3108941916617596
    Two-Electron Energy =                 247.4100346036153155
    Total Energy =                       -304.2157292987821506
 Dipole X            :          2.1143898           -1.8559189            0.2584709
 Dipole Y            :        -17.6413395           18.3724654            0.7311259
 Dipole Z            :        -16.2575930           16.9542203            0.6966273
 Magnitude           :                                                    1.0424211

    SAPT Results
  --------------------------------------------------------------------------------------------------------
    Electrostatics               -144.18730495 [mEh]     -90.47889986 [kcal/mol]    -378.56371699 [kJ/mol]
      Elst10,r                   -155.87263728 [mEh]     -97.81155660 [kcal/mol]    -409.24355280 [kJ/mol]
      Elst12,r                     11.68533233 [mEh]       7.33265674 [kcal/mol]      30.67983580 [kJ/mol]

    Exchange                       42.13315838 [mEh]      26.43895604 [kcal/mol]     110.62059208 [kJ/mol]
      Exch10                       39.20098417 [mEh]      24.59898895 [kcal/mol]     102.92216976 [kJ/mol]
      Exch10(S^2)                  38.79070663 [mEh]      24.34153590 [kcal/mol]     101.84498622 [kJ/mol]
      Exch11(S^2)                  -0.56401479 [mEh]      -0.35392463 [kcal/mol]      -1.48082064 [kJ/mol]
      Exch12(S^2)                   3.49618900 [mEh]       2.19389172 [kcal/mol]       9.17924295 [kJ/mol]

    Induction                     -63.17805724 [mEh]     -39.64482945 [kcal/mol]    -165.87396642 [kJ/mol]
      Ind20,r                     -78.43497327 [mEh]     -49.21868880 [kcal/mol]    -205.93099394 [kJ/mol]
      Ind22                        -8.76095298 [mEh]      -5.49758100 [kcal/mol]     -23.00187889 [kJ/mol]
      Exch-Ind20,r                 24.86230121 [mEh]      15.60132955 [kcal/mol]      65.27596282 [kJ/mol]
      Exch-Ind22                    2.77704502 [mEh]       1.74262206 [kcal/mol]       7.29113070 [kJ/mol]
      delta HF,r (2)               -3.62147721 [mEh]      -2.27251126 [kcal/mol]      -9.50818712 [kJ/mol]

    Dispersion                     -2.88228252 [mEh]      -1.80865959 [kcal/mol]      -7.56743172 [kJ/mol]
      Disp20                       -2.85267989 [mEh]      -1.79008366 [kcal/mol]      -7.48971002 [kJ/mol]
      Disp21                       -0.11548684 [mEh]      -0.07246909 [kcal/mol]      -0.30321066 [kJ/mol]
      Disp22 (SDQ)                 -0.04539843 [mEh]      -0.02848795 [kcal/mol]      -0.11919357 [kJ/mol]
      Disp22 (T)                   -0.16017703 [mEh]      -0.10051260 [kcal/mol]      -0.42054473 [kJ/mol]
      Est. Disp22 (T)              -0.18903888 [mEh]      -0.11862369 [kcal/mol]      -0.49632152 [kJ/mol]
      Exch-Disp20                   0.32032153 [mEh]       0.20100479 [kcal/mol]       0.84100405 [kJ/mol]

  Total HF                       -173.86580238 [mEh]    -109.10243816 [kcal/mol]    -456.48460127 [kJ/mol]
  Total SAPT0                    -176.39816075 [mEh]    -110.69151703 [kcal/mol]    -463.13330724 [kJ/mol]
  Total SAPT2                    -167.76456218 [mEh]    -105.27385213 [kcal/mol]    -440.46579731 [kJ/mol]
  Total SAPT2+                   -168.11448634 [mEh]    -105.49343285 [kcal/mol]    -441.38452306 [kJ/mol]

  Special recipe for scaled SAPT0 (see Manual):
    Electrostatics sSAPT0        -155.87263728 [mEh]     -97.81155660 [kcal/mol]    -409.24355280 [kJ/mol]
    Exchange sSAPT0                39.20098417 [mEh]      24.59898895 [kcal/mol]     102.92216976 [kJ/mol]
    Induction sSAPT0              -56.39689302 [mEh]     -35.38958466 [kcal/mol]    -148.07002222 [kJ/mol]
    Dispersion sSAPT0              -2.52208666 [mEh]      -1.58263327 [kcal/mol]      -6.62173760 [kJ/mol]
  Total sSAPT0                   -175.59063278 [mEh]    -110.18478558 [kcal/mol]    -461.01314285 [kJ/mol]
  --------------------------------------------------------------------------------------------------------

*** Psi4 exiting successfully. Buy a developer a beer!
