                               Psi4 1.9 release

  ==> Input File <==

--------------------------------------------------------------------------
MEMORY 60 GB

molecule dimer {
1 1
Li     0.000000     0.000000     0.000000
--
0 1
O     -1.493181     0.812463    -0.760642
H     -2.274485     0.118561    -0.860742
H     -1.946136     1.446441    -0.200871
O     -0.238550    -1.490324     0.929417
H     -0.382439    -2.409755     0.616696
H     -0.583433    -1.630923     1.807732
O      0.483877     1.296141     1.431392
H      0.764361     0.733210     2.208636
H     -0.078353     2.024658     1.715524
O      1.736640    -0.390823    -1.112667
H      1.820394    -1.119034    -1.789990
H      2.001306     0.393263    -1.580594

units ang
no_reorient
no_com
symmetry c1
}

set {
basis        aug-cc-pVTZ
scf_type     df
}

energy("sapt2+")
--------------------------------------------------------------------------

  //              Dimer HF             //
    Molecular point group: c1
  Charge       = 1
  Multiplicity = 1
  Basis Set: AUG-CC-PVTZ
    Blend: AUG-CC-PVTZ
  Basis Set: (AUG-CC-PVTZ AUX)
    Blend: AUG-CC-PVTZ-JKFIT + DEF2-UNIVERSAL-JKFIT
  @DF-RHF Final Energy:  -311.60666119072528
    Total Energy =                       -311.6066611907252764
 Dipole X            :         -7.1727043            6.1066556           -1.0660486
 Dipole Y            :         -3.2109731            2.6004087           -0.6105644
 Dipole Z            :        -10.2482947           10.9913860            0.7430913
 Magnitude           :                                                    1.4357692
  //            Monomer A HF           //
    Molecular point group: c1
  Multiplicity = 1
  Basis Set: AUG-CC-PVTZ
    Blend: AUG-CC-PVTZ
  Basis Set: (AUG-CC-PVTZ AUX)
    Blend: AUG-CC-PVTZ-JKFIT + DEF2-UNIVERSAL-JKFIT
  @DF-RHF Final Energy:    -7.23638488456120
    Total Energy =                         -7.2363848845612040
  //            Monomer B HF           //
    Molecular point group: c1

    Geometry (in Angstrom), charge = 0, multiplicity = 1:

       Center              X                  Y                   Z               Mass
    ------------   -----------------  -----------------  -----------------  -----------------
      Gh(LI)          0.000000000000     0.000000000000     0.000000000000     7.016003436600
         O           -1.493181000000     0.812463000000    -0.760642000000    15.994914619570
         H           -2.274485000000     0.118561000000    -0.860742000000     1.007825032230
         H           -1.946136000000     1.446441000000    -0.200871000000     1.007825032230
         O           -0.238550000000    -1.490324000000     0.929417000000    15.994914619570
         H           -0.382439000000    -2.409755000000     0.616696000000     1.007825032230
         H           -0.583433000000    -1.630923000000     1.807732000000     1.007825032230
         O            0.483877000000     1.296141000000     1.431392000000    15.994914619570
         H            0.764361000000     0.733210000000     2.208636000000     1.007825032230
         H           -0.078353000000     2.024658000000     1.715524000000     1.007825032230
         O            1.736640000000    -0.390823000000    -1.112667000000    15.994914619570
         H            1.820394000000    -1.119034000000    -1.789990000000     1.007825032230
         H            2.001306000000     0.393263000000    -1.580594000000     1.007825032230

  Charge       = 0
  Multiplicity = 1
  Basis Set: AUG-CC-PVTZ
    Blend: AUG-CC-PVTZ
  Basis Set: (AUG-CC-PVTZ AUX)
    Blend: AUG-CC-PVTZ-JKFIT + DEF2-UNIVERSAL-JKFIT

    Orbital Energies [Eh]
    ---------------------

    Doubly Occupied:

       1A    -20.547194     2A    -20.543414     3A    -20.535323
       4A    -20.530122     5A     -1.330352     6A     -1.306469
       7A     -1.305240     8A     -1.301796     9A     -0.686735
      10A     -0.670978    11A     -0.666910    12A     -0.648574
      13A     -0.575260    14A     -0.552289    15A     -0.538732
      16A     -0.529124    17A     -0.491039    18A     -0.476825
      19A     -0.467727    20A     -0.462599

  @DF-RHF Final Energy:  -304.19755914543941

   => Energetics <=

    Nuclear Repulsion Energy =            132.4252315277101673
    One-Electron Energy =                -684.9121669405592456
    Two-Electron Energy =                 248.2893762674096934
    Total Energy =                       -304.1975591454394134
 Dipole X            :         -7.0830966            6.1066556           -0.9764410
 Dipole Y            :         -3.1444690            2.6004087           -0.5440604
 Dipole Z            :        -10.4103994           10.9913860            0.5809867
 Magnitude           :                                                    1.2597556

    SAPT Results
  --------------------------------------------------------------------------------------------------------
    Electrostatics               -146.38365342 [mEh]     -91.85712933 [kcal/mol]    -384.33022910 [kJ/mol]
      Elst10,r                   -158.87816616 [mEh]     -99.69755444 [kcal/mol]    -417.13456779 [kJ/mol]
      Elst12,r                     12.49451274 [mEh]       7.84042512 [kcal/mol]      32.80433868 [kJ/mol]

    Exchange                       51.32394965 [mEh]      32.20626464 [kcal/mol]     134.75101125 [kJ/mol]
      Exch10                       48.21594485 [mEh]      30.25596218 [kcal/mol]     126.59094575 [kJ/mol]
      Exch10(S^2)                  47.59730875 [mEh]      29.86776216 [kcal/mol]     124.96671689 [kJ/mol]
      Exch11(S^2)                  -0.71845579 [mEh]      -0.45083782 [kcal/mol]      -1.88630543 [kJ/mol]
      Exch12(S^2)                   3.82646060 [mEh]       2.40114028 [kcal/mol]      10.04637092 [kJ/mol]

    Induction                     -68.42275066 [mEh]     -42.93592426 [kcal/mol]    -179.64390710 [kJ/mol]
      Ind20,r                     -86.39828374 [mEh]     -54.21574157 [kcal/mol]    -226.83866271 [kJ/mol]
      Ind22                        -9.55101465 [mEh]      -5.99335218 [kcal/mol]     -25.07618551 [kJ/mol]
      Exch-Ind20,r                 28.79519309 [mEh]      18.06925646 [kcal/mol]      75.60176903 [kJ/mol]
      Exch-Ind22                    3.18320341 [mEh]       1.99749029 [kcal/mol]       8.35749939 [kJ/mol]
      delta HF,r (2)               -4.45184875 [mEh]      -2.79357727 [kcal/mol]     -11.68832729 [kJ/mol]

    Dispersion                     -3.36811760 [mEh]      -2.11352570 [kcal/mol]      -8.84299154 [kJ/mol]
      Disp20                       -3.36821055 [mEh]      -2.11358403 [kcal/mol]      -8.84323558 [kJ/mol]
      Disp21                       -0.11041698 [mEh]      -0.06928770 [kcal/mol]      -0.28989974 [kJ/mol]
      Disp22 (SDQ)                 -0.04951732 [mEh]      -0.03107259 [kcal/mol]      -0.13000772 [kJ/mol]
      Disp22 (T)                   -0.19395753 [mEh]      -0.12171019 [kcal/mol]      -0.50923542 [kJ/mol]
      Est. Disp22 (T)              -0.22196904 [mEh]      -0.13928768 [kcal/mol]      -0.58277965 [kJ/mol]
      Exch-Disp20                   0.38199630 [mEh]       0.23970629 [kcal/mol]       1.00293114 [kJ/mol]

  Total HF                       -172.71716072 [mEh]    -108.38165464 [kcal/mol]    -453.46884301 [kJ/mol]
  Total SAPT0                    -175.70337498 [mEh]    -110.25553237 [kcal/mol]    -461.30914745 [kJ/mol]
  Total SAPT2                    -166.46866867 [mEh]    -104.46066668 [kcal/mol]    -437.06342939 [kJ/mol]
  Total SAPT2+                   -166.85057202 [mEh]    -104.70031465 [kcal/mol]    -438.06611649 [kJ/mol]

  Special recipe for scaled SAPT0 (see Manual):
    Electrostatics sSAPT0        -158.87816616 [mEh]     -99.69755444 [kcal/mol]    -417.13456779 [kJ/mol]
    Exchange sSAPT0                48.21594485 [mEh]      30.25596218 [kcal/mol]     126.59094575 [kJ/mol]
    Induction sSAPT0              -60.91750454 [mEh]     -38.22631122 [kcal/mol]    -159.93888614 [kJ/mol]
    Dispersion sSAPT0              -2.97112507 [mEh]      -1.86440913 [kcal/mol]      -7.80068780 [kJ/mol]
  Total sSAPT0                   -174.55085093 [mEh]    -109.53231261 [kcal/mol]    -458.28319597 [kJ/mol]
  --------------------------------------------------------------------------------------------------------

*** Psi4 exiting successfully. Buy a developer a beer!
