                               Psi4 1.9 release

  ==> Input File <==

--------------------------------------------------------------------------
MEMORY 60 GB

molecule dimer {
1 1
Li     0.000000     0.000000     0.000000
--
0 1
O     -1.238463    -0.786538     1.271879
H     -2.189206    -1.079607     1.210652
H     -1.227083    -0.332340     2.141372
O      1.842945    -0.344527    -0.143005
H      2.300244     0.408784    -0.637790
H      1.937252    -1.198420    -0.570477
O     -0.517595    -0.483751    -1.762158
H     -0.134699    -1.226200    -2.237230
H     -1.418849    -0.662634    -1.774291

units ang
no_reorient
no_com
symmetry c1
}

set {
basis        aug-cc-pVTZ
scf_type     df
}

energy("sapt2+")
--------------------------------------------------------------------------

  //              Dimer HF             //
    Molecular point group: c1
  Charge       = 1
  Multiplicity = 1
  Basis Set: AUG-CC-PVTZ
    Blend: AUG-CC-PVTZ
  Basis Set: (AUG-CC-PVTZ AUX)
    Blend: AUG-CC-PVTZ-JKFIT + DEF2-UNIVERSAL-JKFIT
  @DF-RHF Final Energy:  -235.53109459736581
    Total Energy =                       -235.5310945973658079
 Dipole X            :         -0.5446595           -0.0703828           -0.6150423
 Dipole Y            :         31.2753740          -32.1422477           -0.8668738
 Dipole Z            :         12.5832646          -13.1034290           -0.5201644
 Magnitude           :                                                    1.1833504
  //            Monomer A HF           //
    Molecular point group: c1
  Multiplicity = 1
  Basis Set: AUG-CC-PVTZ
    Blend: AUG-CC-PVTZ
  Basis Set: (AUG-CC-PVTZ AUX)
    Blend: AUG-CC-PVTZ-JKFIT + DEF2-UNIVERSAL-JKFIT
  @DF-RHF Final Energy:    -7.23638448022458
    Total Energy =                         -7.2363844802245811
  //            Monomer B HF           //
    Molecular point group: c1

    Geometry (in Angstrom), charge = 0, multiplicity = 1:

       Center              X                  Y                   Z               Mass
    ------------   -----------------  -----------------  -----------------  -----------------
      Gh(LI)          0.000000000000     0.000000000000     0.000000000000     7.016003436600
         O           -1.238463000000    -0.786538000000     1.271879000000    15.994914619570
         H           -2.189206000000    -1.079607000000     1.210652000000     1.007825032230
         H           -1.227083000000    -0.332340000000     2.141372000000     1.007825032230
         O            1.842945000000    -0.344527000000    -0.143005000000    15.994914619570
         H            2.300244000000     0.408784000000    -0.637790000000     1.007825032230
         H            1.937252000000    -1.198420000000    -0.570477000000     1.007825032230
         O           -0.517595000000    -0.483751000000    -1.762158000000    15.994914619570
         H           -0.134699000000    -1.226200000000    -2.237230000000     1.007825032230
         H           -1.418849000000    -0.662634000000    -1.774291000000     1.007825032230

  Charge       = 0
  Multiplicity = 1
  Basis Set: AUG-CC-PVTZ
    Blend: AUG-CC-PVTZ
  Basis Set: (AUG-CC-PVTZ AUX)
    Blend: AUG-CC-PVTZ-JKFIT + DEF2-UNIVERSAL-JKFIT

    Orbital Energies [Eh]
    ---------------------

    Doubly Occupied:

       1A    -20.556911     2A    -20.543064     3A    -20.537968
       4A     -1.344104     5A     -1.322881     6A     -1.305745
       7A     -0.707207     8A     -0.690294     9A     -0.678733
      10A     -0.572361    11A     -0.564381    12A     -0.532079
      13A     -0.496558    14A     -0.488908    15A     -0.469584

  @DF-RHF Final Energy:  -228.15789005627059

   => Energetics <=

    Nuclear Repulsion Energy =             75.8412181409115504
    One-Electron Energy =                -466.3766561790628202
    Two-Electron Energy =                 162.3775479818806673
    Total Energy =                       -228.1578900562705883
 Dipole X            :         -0.5310834           -0.0703828           -0.6014663
 Dipole Y            :         31.6198994          -32.1422477           -0.5223484
 Dipole Z            :         12.7426573          -13.1034290           -0.3607717
 Magnitude           :                                                    0.8745089

    SAPT Results
  --------------------------------------------------------------------------------------------------------
    Electrostatics               -118.86145193 [mEh]     -74.58668715 [kcal/mol]    -312.07069904 [kJ/mol]
      Elst10,r                   -127.58004889 [mEh]     -80.05768934 [kcal/mol]    -334.96137220 [kJ/mol]
      Elst12,r                      8.71859696 [mEh]       5.47100219 [kcal/mol]      22.89067316 [kJ/mol]

    Exchange                       43.19709787 [mEh]      27.10658815 [kcal/mol]     113.41396482 [kJ/mol]
      Exch10                       40.16609520 [mEh]      25.20460526 [kcal/mol]     105.45606843 [kJ/mol]
      Exch10(S^2)                  39.73829305 [mEh]      24.93615536 [kcal/mol]     104.33287404 [kJ/mol]
      Exch11(S^2)                  -0.47343015 [mEh]      -0.29708191 [kcal/mol]      -1.24299070 [kJ/mol]
      Exch12(S^2)                   3.50443282 [mEh]       2.19906479 [kcal/mol]       9.20088709 [kJ/mol]

    Induction                     -54.29461823 [mEh]     -34.07038732 [kcal/mol]    -142.55050053 [kJ/mol]
      Ind20,r                     -72.30842974 [mEh]     -45.37422469 [kcal/mol]    -189.84575612 [kJ/mol]
      Ind22                        -7.69094970 [mEh]      -4.82614380 [kcal/mol]     -20.19258564 [kJ/mol]
      Exch-Ind20,r                 26.34784341 [mEh]      16.53352135 [kcal/mol]      69.17625334 [kJ/mol]
      Exch-Ind22                    2.80243865 [mEh]       1.75855680 [kcal/mol]       7.35780166 [kJ/mol]
      delta HF,r (2)               -3.44552086 [mEh]      -2.16209698 [kcal/mol]      -9.04621377 [kJ/mol]

    Dispersion                     -2.54425959 [mEh]      -1.59654700 [kcal/mol]      -6.67995263 [kJ/mol]
      Disp20                       -2.51364820 [mEh]      -1.57733806 [kcal/mol]      -6.59958244 [kJ/mol]
      Disp21                       -0.11272381 [mEh]      -0.07073526 [kcal/mol]      -0.29595631 [kJ/mol]
      Disp22 (SDQ)                 -0.04168093 [mEh]      -0.02615518 [kcal/mol]      -0.10943326 [kJ/mol]
      Disp22 (T)                   -0.15077660 [mEh]      -0.09461375 [kcal/mol]      -0.39586392 [kJ/mol]
      Est. Disp22 (T)              -0.17004241 [mEh]      -0.10670322 [kcal/mol]      -0.44644629 [kJ/mol]
      Exch-Disp20                   0.29383576 [mEh]       0.18438472 [kcal/mol]       0.77146567 [kJ/mol]

  Total HF                       -136.82006087 [mEh]     -85.85588440 [kcal/mol]    -359.22102033 [kJ/mol]
  Total SAPT0                    -139.03987331 [mEh]     -87.24883774 [kcal/mol]    -365.04913709 [kJ/mol]
  Total SAPT2                    -132.17878474 [mEh]     -82.94343966 [kcal/mol]    -347.03535152 [kJ/mol]
  Total SAPT2+                   -132.50323188 [mEh]     -83.14703331 [kcal/mol]    -347.88718738 [kJ/mol]

  Special recipe for scaled SAPT0 (see Manual):
    Electrostatics sSAPT0        -127.58004889 [mEh]     -80.05768934 [kcal/mol]    -334.96137220 [kJ/mol]
    Exchange sSAPT0                40.16609520 [mEh]      25.20460526 [kcal/mol]     105.45606843 [kJ/mol]
    Induction sSAPT0              -48.54597126 [mEh]     -30.46305688 [kcal/mol]    -127.45742999 [kJ/mol]
    Dispersion sSAPT0              -2.21022006 [mEh]      -1.38693403 [kcal/mol]      -5.80293196 [kJ/mol]
  Total sSAPT0                   -138.17014500 [mEh]     -86.70307498 [kcal/mol]    -362.76566573 [kJ/mol]
  --------------------------------------------------------------------------------------------------------

*** Psi4 exiting successfully. Buy a developer a beer!
