                               Psi4 1.9 release

  ==> Input File <==

--------------------------------------------------------------------------
MEMORY 60 GB

molecule dimer {
1 1
Li     0.000000     0.000000     0.000000
--
0 1
O      0.310094    -1.762459     0.424676
H      1.019755    -2.370888     0.219586
H     -0.545566    -2.125910     0.340252
O      1.379131     0.920850    -0.326352
H      2.291762     0.787935     0.009136
H      1.516037     1.585216    -1.021019
O     -1.539823     0.503766    -1.067499
H     -2.441997     0.161504    -1.061971
H     -1.551102     1.250548    -1.642154

units ang
no_reorient
no_com
symmetry c1
}

set {
basis        aug-cc-pVTZ
scf_type     df
}

energy("sapt2+")
--------------------------------------------------------------------------

  //              Dimer HF             //
    Molecular point group: c1
  Charge       = 1
  Multiplicity = 1
  Basis Set: AUG-CC-PVTZ
    Blend: AUG-CC-PVTZ
  Basis Set: (AUG-CC-PVTZ AUX)
    Blend: AUG-CC-PVTZ-JKFIT + DEF2-UNIVERSAL-JKFIT
  @DF-RHF Final Energy:  -235.54380939066544
    Total Energy =                       -235.5438093906654444
 Dipole X            :         -2.7324164            2.8045520            0.0721356
 Dipole Y            :          6.3583719           -6.4521656           -0.0937937
 Dipole Z            :         19.5747771          -20.6160994           -1.0413224
 Magnitude           :                                                    1.0480234
  //            Monomer A HF           //
    Molecular point group: c1
  Multiplicity = 1
  Basis Set: AUG-CC-PVTZ
    Blend: AUG-CC-PVTZ
  Basis Set: (AUG-CC-PVTZ AUX)
    Blend: AUG-CC-PVTZ-JKFIT + DEF2-UNIVERSAL-JKFIT
  @DF-RHF Final Energy:    -7.23638454424046
    Total Energy =                         -7.2363845442404653
  //            Monomer B HF           //
    Molecular point group: c1

    Geometry (in Angstrom), charge = 0, multiplicity = 1:

       Center              X                  Y                   Z               Mass
    ------------   -----------------  -----------------  -----------------  -----------------
      Gh(LI)          0.000000000000     0.000000000000     0.000000000000     7.016003436600
         O            0.310094000000    -1.762459000000     0.424676000000    15.994914619570
         H            1.019755000000    -2.370888000000     0.219586000000     1.007825032230
         H           -0.545566000000    -2.125910000000     0.340252000000     1.007825032230
         O            1.379131000000     0.920850000000    -0.326352000000    15.994914619570
         H            2.291762000000     0.787935000000     0.009136000000     1.007825032230
         H            1.516037000000     1.585216000000    -1.021019000000     1.007825032230
         O           -1.539823000000     0.503766000000    -1.067499000000    15.994914619570
         H           -2.441997000000     0.161504000000    -1.061971000000     1.007825032230
         H           -1.551102000000     1.250548000000    -1.642154000000     1.007825032230

  Charge       = 0
  Multiplicity = 1
  Basis Set: AUG-CC-PVTZ
    Blend: AUG-CC-PVTZ
  Basis Set: (AUG-CC-PVTZ AUX)
    Blend: AUG-CC-PVTZ-JKFIT + DEF2-UNIVERSAL-JKFIT

    Orbital Energies [Eh]
    ---------------------

    Doubly Occupied:

       1A    -20.547338     2A    -20.543445     3A    -20.530850
       4A     -1.336580     5A     -1.324261     6A     -1.317671
       7A     -0.714681     8A     -0.704974     9A     -0.674752
      10A     -0.570937    11A     -0.550153    12A     -0.532704
      13A     -0.492506    14A     -0.482959    15A     -0.474126

  @DF-RHF Final Energy:  -228.16487177551983

   => Energetics <=

    Nuclear Repulsion Energy =             76.0595649850455828
    One-Electron Energy =                -466.8529937063285615
    Two-Electron Energy =                 162.6285569457631368
    Total Energy =                       -228.1648717755198277
 Dipole X            :         -2.8522955            2.8045520           -0.0477435
 Dipole Y            :          6.4126959           -6.4521656           -0.0394697
 Dipole Z            :         19.8254723          -20.6160994           -0.7906271
 Magnitude           :                                                    0.7930501

    SAPT Results
  --------------------------------------------------------------------------------------------------------
    Electrostatics               -131.37406986 [mEh]     -82.43847345 [kcal/mol]    -344.92257290 [kJ/mol]
      Elst10,r                   -142.81679689 [mEh]     -89.61889306 [kcal/mol]    -374.96544858 [kJ/mol]
      Elst12,r                     11.44272703 [mEh]       7.18041962 [kcal/mol]      30.04287568 [kJ/mol]

    Exchange                       59.49487000 [mEh]      37.33359457 [kcal/mol]     156.20375966 [kJ/mol]
      Exch10                       56.81702485 [mEh]      35.65322137 [kcal/mol]     149.17307819 [kJ/mol]
      Exch10(S^2)                  55.96923978 [mEh]      35.12122820 [kcal/mol]     146.94721880 [kJ/mol]
      Exch11(S^2)                  -0.68811640 [mEh]      -0.43179956 [kcal/mol]      -1.80664935 [kJ/mol]
      Exch12(S^2)                   3.36596154 [mEh]       2.11217276 [kcal/mol]       8.83733082 [kJ/mol]

    Induction                     -61.56265224 [mEh]     -38.63114751 [kcal/mol]    -161.63272120 [kJ/mol]
      Ind20,r                     -85.09451736 [mEh]     -53.39761581 [kcal/mol]    -223.41562454 [kJ/mol]
      Ind22                        -8.21294775 [mEh]      -5.15370252 [kcal/mol]     -21.56309134 [kJ/mol]
      Exch-Ind20,r                 33.19250588 [mEh]      20.82861190 [kcal/mol]      87.14691218 [kJ/mol]
      Exch-Ind22                    3.20359437 [mEh]       2.01028582 [kcal/mol]       8.41103585 [kJ/mol]
      delta HF,r (2)               -4.65128739 [mEh]      -2.91872690 [kcal/mol]     -12.21195335 [kJ/mol]

    Dispersion                     -3.30743518 [mEh]      -2.07544691 [kcal/mol]      -8.68366988 [kJ/mol]
      Disp20                       -3.33995089 [mEh]      -2.09585082 [kcal/mol]      -8.76903985 [kJ/mol]
      Disp21                       -0.11590265 [mEh]      -0.07273001 [kcal/mol]      -0.30430236 [kJ/mol]
      Disp22 (SDQ)                 -0.03587471 [mEh]      -0.02251172 [kcal/mol]      -0.09418903 [kJ/mol]
      Disp22 (T)                   -0.18556840 [mEh]      -0.11644593 [kcal/mol]      -0.48720977 [kJ/mol]
      Est. Disp22 (T)              -0.21049785 [mEh]      -0.13208940 [kcal/mol]      -0.55266204 [kJ/mol]
      Exch-Disp20                   0.39479091 [mEh]       0.24773504 [kcal/mol]       1.03652340 [kJ/mol]

  Total HF                       -142.55307091 [mEh]     -89.45340251 [kcal/mol]    -374.27303610 [kJ/mol]
  Total SAPT0                    -145.49823088 [mEh]     -91.30151829 [kcal/mol]    -382.00555254 [kJ/mol]
  Total SAPT2                    -136.38701208 [mEh]     -85.58414218 [kcal/mol]    -358.08405088 [kJ/mol]
  Total SAPT2+                   -136.74928729 [mEh]     -85.81147331 [kcal/mol]    -359.03520432 [kJ/mol]

  Special recipe for scaled SAPT0 (see Manual):
    Electrostatics sSAPT0        -142.81679689 [mEh]     -89.61889306 [kcal/mol]    -374.96544858 [kJ/mol]
    Exchange sSAPT0                56.81702485 [mEh]      35.65322137 [kcal/mol]     149.17307819 [kJ/mol]
    Induction sSAPT0              -55.02200180 [mEh]     -34.52682739 [kcal/mol]    -144.46024582 [kJ/mol]
    Dispersion sSAPT0              -2.92694676 [mEh]      -1.83668682 [kcal/mol]      -7.68469766 [kJ/mol]
  Total sSAPT0                   -143.94872060 [mEh]     -90.32918591 [kcal/mol]    -377.93731387 [kJ/mol]
  --------------------------------------------------------------------------------------------------------

*** Psi4 exiting successfully. Buy a developer a beer!
