                               Psi4 1.9 release

  ==> Input File <==

--------------------------------------------------------------------------
MEMORY 60 GB

molecule dimer {
1 1
Li     0.000000     0.000000     0.000000
--
0 1
O     -0.409388    -1.172788    -1.653677
H     -0.592719    -0.863963    -2.571183
H     -1.165044    -1.724467    -1.443699
O      0.581959    -1.470160     1.232372
H      0.948783    -1.556174     2.097776
H      0.995278    -2.238232     0.765158
O     -1.695527     0.711563    -0.176134
H     -2.191824     1.057173    -0.930725
H     -2.102533     1.149660     0.537971
O      1.307265     1.309986     0.356041
H      1.967290     1.087218     1.057477
H      1.846449     1.401655    -0.489010

units ang
no_reorient
no_com
symmetry c1
}

set {
basis        aug-cc-pVTZ
scf_type     df
}

energy("sapt2+")
--------------------------------------------------------------------------

  //              Dimer HF             //
    Molecular point group: c1
  Charge       = 1
  Multiplicity = 1
  Basis Set: AUG-CC-PVTZ
    Blend: AUG-CC-PVTZ
  Basis Set: (AUG-CC-PVTZ AUX)
    Blend: AUG-CC-PVTZ-JKFIT + DEF2-UNIVERSAL-JKFIT
  @DF-RHF Final Energy:  -311.61964746569890
    Total Energy =                       -311.6196474656989039
 Dipole X            :          3.8523857           -3.8169595            0.0354262
 Dipole Y            :         12.2446454          -12.5824050           -0.3377597
 Dipole Z            :          5.1683684           -5.4942256           -0.3258572
 Magnitude           :                                                    0.4706586
  //            Monomer A HF           //
    Molecular point group: c1
  Multiplicity = 1
  Basis Set: AUG-CC-PVTZ
    Blend: AUG-CC-PVTZ
  Basis Set: (AUG-CC-PVTZ AUX)
    Blend: AUG-CC-PVTZ-JKFIT + DEF2-UNIVERSAL-JKFIT
  @DF-RHF Final Energy:    -7.23638486756548
    Total Energy =                         -7.2363848675654836
  //            Monomer B HF           //
    Molecular point group: c1

    Geometry (in Angstrom), charge = 0, multiplicity = 1:

       Center              X                  Y                   Z               Mass
    ------------   -----------------  -----------------  -----------------  -----------------
      Gh(LI)          0.000000000000     0.000000000000     0.000000000000     7.016003436600
         O           -0.409388000000    -1.172788000000    -1.653677000000    15.994914619570
         H           -0.592719000000    -0.863963000000    -2.571183000000     1.007825032230
         H           -1.165044000000    -1.724467000000    -1.443699000000     1.007825032230
         O            0.581959000000    -1.470160000000     1.232372000000    15.994914619570
         H            0.948783000000    -1.556174000000     2.097776000000     1.007825032230
         H            0.995278000000    -2.238232000000     0.765158000000     1.007825032230
         O           -1.695527000000     0.711563000000    -0.176134000000    15.994914619570
         H           -2.191824000000     1.057173000000    -0.930725000000     1.007825032230
         H           -2.102533000000     1.149660000000     0.537971000000     1.007825032230
         O            1.307265000000     1.309986000000     0.356041000000    15.994914619570
         H            1.967290000000     1.087218000000     1.057477000000     1.007825032230
         H            1.846449000000     1.401655000000    -0.489010000000     1.007825032230

  Charge       = 0
  Multiplicity = 1
  Basis Set: AUG-CC-PVTZ
    Blend: AUG-CC-PVTZ
  Basis Set: (AUG-CC-PVTZ AUX)
    Blend: AUG-CC-PVTZ-JKFIT + DEF2-UNIVERSAL-JKFIT

    Orbital Energies [Eh]
    ---------------------

    Doubly Occupied:

       1A    -20.540180     2A    -20.537676     3A    -20.534152
       4A    -20.528766     5A     -1.324779     6A     -1.322253
       7A     -1.314568     8A     -1.294254     9A     -0.681408
      10A     -0.681044    11A     -0.674723    12A     -0.658617
      13A     -0.566807    14A     -0.550706    15A     -0.547258
      16A     -0.534416    17A     -0.486666    18A     -0.476080
      19A     -0.469113    20A     -0.459832

  @DF-RHF Final Energy:  -304.20966480682284

   => Energetics <=

    Nuclear Repulsion Energy =            132.6463531745065154
    One-Electron Energy =                -685.3454373749680144
    Two-Electron Energy =                 248.4894193936385989
    Total Energy =                       -304.2096648068228433
 Dipole X            :          3.8704237           -3.8169595            0.0534641
 Dipole Y            :         12.3046622          -12.5824050           -0.2777428
 Dipole Z            :          5.2292382           -5.4942256           -0.2649874
 Magnitude           :                                                    0.3875794

    SAPT Results
  --------------------------------------------------------------------------------------------------------
    Electrostatics               -144.09064930 [mEh]     -90.41824752 [kcal/mol]    -378.30994761 [kJ/mol]
      Elst10,r                   -156.38081774 [mEh]     -98.13044465 [kcal/mol]    -410.57778042 [kJ/mol]
      Elst12,r                     12.29016845 [mEh]       7.71219713 [kcal/mol]      32.26783281 [kJ/mol]

    Exchange                       44.79516520 [mEh]      28.10939054 [kcal/mol]     117.60969002 [kJ/mol]
      Exch10                       41.79127306 [mEh]      26.22441977 [kcal/mol]     109.72297231 [kJ/mol]
      Exch10(S^2)                  41.32456050 [mEh]      25.93155321 [kcal/mol]     108.49761863 [kJ/mol]
      Exch11(S^2)                  -0.61418359 [mEh]      -0.38540602 [kcal/mol]      -1.61253880 [kJ/mol]
      Exch12(S^2)                   3.61807573 [mEh]       2.27037680 [kcal/mol]       9.49925652 [kJ/mol]

    Induction                     -65.16615629 [mEh]     -40.89238044 [kcal/mol]    -171.09371977 [kJ/mol]
      Ind20,r                     -81.08250353 [mEh]     -50.88003912 [kcal/mol]    -212.88208368 [kJ/mol]
      Ind22                        -9.05042539 [mEh]      -5.67922767 [kcal/mol]     -23.76188858 [kJ/mol]
      Exch-Ind20,r                 25.91396605 [mEh]      16.26125920 [kcal/mol]      68.03710849 [kJ/mol]
      Exch-Ind22                    2.89251572 [mEh]       1.81508102 [kcal/mol]       7.59429898 [kJ/mol]
      delta HF,r (2)               -3.83970915 [mEh]      -2.40945387 [kcal/mol]     -10.08115499 [kJ/mol]

    Dispersion                     -3.04172320 [mEh]      -1.90871012 [kcal/mol]      -7.98604315 [kJ/mol]
      Disp20                       -3.02224541 [mEh]      -1.89648763 [kcal/mol]      -7.93490423 [kJ/mol]
      Disp21                       -0.10843231 [mEh]      -0.06804230 [kcal/mol]      -0.28468899 [kJ/mol]
      Disp22 (SDQ)                 -0.04682239 [mEh]      -0.02938149 [kcal/mol]      -0.12293216 [kJ/mol]
      Disp22 (T)                   -0.17652605 [mEh]      -0.11077177 [kcal/mol]      -0.46346908 [kJ/mol]
      Est. Disp22 (T)              -0.20143335 [mEh]      -0.12640134 [kcal/mol]      -0.52886320 [kJ/mol]
      Exch-Disp20                   0.33721026 [mEh]       0.21160263 [kcal/mol]       0.88534542 [kJ/mol]

  Total HF                       -173.59779131 [mEh]    -108.93425867 [kcal/mol]    -455.78093829 [kJ/mol]
  Total SAPT0                    -176.28282646 [mEh]    -110.61914367 [kcal/mol]    -462.83049710 [kJ/mol]
  Total SAPT2                    -167.14667554 [mEh]    -104.88612241 [kcal/mol]    -438.84353618 [kJ/mol]
  Total SAPT2+                   -167.50336359 [mEh]    -105.10994754 [kcal/mol]    -439.78002052 [kJ/mol]

  Special recipe for scaled SAPT0 (see Manual):
    Electrostatics sSAPT0        -156.38081774 [mEh]     -98.13044465 [kcal/mol]    -410.57778042 [kJ/mol]
    Exchange sSAPT0                41.79127306 [mEh]      26.22441977 [kcal/mol]     109.72297231 [kJ/mol]
    Induction sSAPT0              -58.12028948 [mEh]     -36.47103227 [kcal/mol]    -152.59479901 [kJ/mol]
    Dispersion sSAPT0              -2.67348044 [mEh]      -1.67763431 [kcal/mol]      -7.01922193 [kJ/mol]
  Total sSAPT0                   -175.38331461 [mEh]    -110.05469146 [kcal/mol]    -460.46882906 [kJ/mol]
  --------------------------------------------------------------------------------------------------------

*** Psi4 exiting successfully. Buy a developer a beer!
