                               Psi4 1.9 release

  ==> Input File <==

--------------------------------------------------------------------------
MEMORY 60 GB

molecule dimer {
1 1
Li     0.000000     0.000000     0.000000
--
0 1
O      0.699917    -1.605590    -0.538374
H      0.331929    -2.479437    -0.070724
H      1.595037    -1.827290    -0.867616
O     -0.415776     0.409880     1.974965
H     -0.632469    -0.216349     2.683802
H     -1.094302     1.112373     2.095595
O      1.114874     1.438486    -0.655299
H      2.041900     1.265101    -0.736658
H      0.981857     2.289101    -0.189952
O     -1.728885     0.283644    -1.130470
H     -1.722627    -0.186960    -2.021005
H     -2.497560    -0.024047    -0.644402

units ang
no_reorient
no_com
symmetry c1
}

set {
basis        aug-cc-pVTZ
scf_type     df
}

energy("sapt2+")
--------------------------------------------------------------------------

  //              Dimer HF             //
    Molecular point group: c1
  Charge       = 1
  Multiplicity = 1
  Basis Set: AUG-CC-PVTZ
    Blend: AUG-CC-PVTZ
  Basis Set: (AUG-CC-PVTZ AUX)
    Blend: AUG-CC-PVTZ-JKFIT + DEF2-UNIVERSAL-JKFIT
  @DF-RHF Final Energy:  -311.61451153196259
    Total Energy =                       -311.6145115319625916
 Dipole X            :          6.6789385           -6.8695230           -0.1905845
 Dipole Y            :         -8.5619215            7.8307454           -0.7311761
 Dipole Z            :          5.3873270           -4.8081889            0.5791381
 Magnitude           :                                                    0.9520199
  //            Monomer A HF           //
    Molecular point group: c1
  Multiplicity = 1
  Basis Set: AUG-CC-PVTZ
    Blend: AUG-CC-PVTZ
  Basis Set: (AUG-CC-PVTZ AUX)
    Blend: AUG-CC-PVTZ-JKFIT + DEF2-UNIVERSAL-JKFIT
  @DF-RHF Final Energy:    -7.23638483709076
    Total Energy =                         -7.2363848370907622
  //            Monomer B HF           //
    Molecular point group: c1

    Geometry (in Angstrom), charge = 0, multiplicity = 1:

       Center              X                  Y                   Z               Mass
    ------------   -----------------  -----------------  -----------------  -----------------
      Gh(LI)          0.000000000000     0.000000000000     0.000000000000     7.016003436600
         O            0.699917000000    -1.605590000000    -0.538374000000    15.994914619570
         H            0.331929000000    -2.479437000000    -0.070724000000     1.007825032230
         H            1.595037000000    -1.827290000000    -0.867616000000     1.007825032230
         O           -0.415776000000     0.409880000000     1.974965000000    15.994914619570
         H           -0.632469000000    -0.216349000000     2.683802000000     1.007825032230
         H           -1.094302000000     1.112373000000     2.095595000000     1.007825032230
         O            1.114874000000     1.438486000000    -0.655299000000    15.994914619570
         H            2.041900000000     1.265101000000    -0.736658000000     1.007825032230
         H            0.981857000000     2.289101000000    -0.189952000000     1.007825032230
         O           -1.728885000000     0.283644000000    -1.130470000000    15.994914619570
         H           -1.722627000000    -0.186960000000    -2.021005000000     1.007825032230
         H           -2.497560000000    -0.024047000000    -0.644402000000     1.007825032230

  Charge       = 0
  Multiplicity = 1
  Basis Set: AUG-CC-PVTZ
    Blend: AUG-CC-PVTZ
  Basis Set: (AUG-CC-PVTZ AUX)
    Blend: AUG-CC-PVTZ-JKFIT + DEF2-UNIVERSAL-JKFIT

    Orbital Energies [Eh]
    ---------------------

    Doubly Occupied:

       1A    -20.548476     2A    -20.547736     3A    -20.531220
       4A    -20.522821     5A     -1.321294     6A     -1.305556
       7A     -1.300281     8A     -1.296262     9A     -0.683629
      10A     -0.679230    11A     -0.671059    12A     -0.661557
      13A     -0.560501    14A     -0.545466    15A     -0.533440
      16A     -0.520182    17A     -0.485334    18A     -0.478143
      19A     -0.465684    20A     -0.461919

  @DF-RHF Final Energy:  -304.20158720274719

   => Energetics <=

    Nuclear Repulsion Energy =            129.7420873080906460
    One-Electron Energy =                -679.6477577898889422
    Two-Electron Energy =                 245.7040832790511615
    Total Energy =                       -304.2015872027471914
 Dipole X            :          6.6932617           -6.8695230           -0.1762613
 Dipole Y            :         -8.5309008            7.8307454           -0.7001554
 Dipole Z            :          5.4216848           -4.8081889            0.6134958
 Magnitude           :                                                    0.9474507

    SAPT Results
  --------------------------------------------------------------------------------------------------------
    Electrostatics               -145.83021526 [mEh]     -91.50984164 [kcal/mol]    -382.87717741 [kJ/mol]
      Elst10,r                   -157.70795896 [mEh]     -98.96323833 [kcal/mol]    -414.06218919 [kJ/mol]
      Elst12,r                     11.87774370 [mEh]       7.45339670 [kcal/mol]      31.18501178 [kJ/mol]

    Exchange                       42.56247610 [mEh]      26.70835698 [kcal/mol]     111.74776560 [kJ/mol]
      Exch10                       39.62097326 [mEh]      24.86253608 [kcal/mol]     104.02485097 [kJ/mol]
      Exch10(S^2)                  39.20161022 [mEh]      24.59938180 [kcal/mol]     102.92381346 [kJ/mol]
      Exch11(S^2)                  -0.56434913 [mEh]      -0.35413442 [kcal/mol]      -1.48169843 [kJ/mol]
      Exch12(S^2)                   3.50585196 [mEh]       2.19995532 [kcal/mol]       9.20461306 [kJ/mol]

    Induction                     -64.62119611 [mEh]     -40.55041277 [kcal/mol]    -169.66292702 [kJ/mol]
      Ind20,r                     -79.81941868 [mEh]     -50.08744141 [kcal/mol]    -209.56585487 [kJ/mol]
      Ind22                        -8.99588958 [mEh]      -5.64500593 [kcal/mol]     -23.61870483 [kJ/mol]
      Exch-Ind20,r                 25.08539597 [mEh]      15.74132362 [kcal/mol]      65.86169804 [kJ/mol]
      Exch-Ind22                    2.82719990 [mEh]       1.77409472 [kcal/mol]       7.42281230 [kJ/mol]
      delta HF,r (2)               -3.71848372 [mEh]      -2.33338377 [kcal/mol]      -9.76287767 [kJ/mol]

    Dispersion                     -2.90014145 [mEh]      -1.81986624 [kcal/mol]      -7.61432033 [kJ/mol]
      Disp20                       -2.87247383 [mEh]      -1.80250454 [kcal/mol]      -7.54167900 [kJ/mol]
      Disp21                       -0.10846720 [mEh]      -0.06806420 [kcal/mol]      -0.28478060 [kJ/mol]
      Disp22 (SDQ)                 -0.04672798 [mEh]      -0.02932225 [kcal/mol]      -0.12268430 [kJ/mol]
      Disp22 (T)                   -0.16240295 [mEh]      -0.10190939 [kcal/mol]      -0.42638888 [kJ/mol]
      Est. Disp22 (T)              -0.19194050 [mEh]      -0.12044448 [kcal/mol]      -0.50393972 [kJ/mol]
      Exch-Disp20                   0.31946806 [mEh]       0.20046923 [kcal/mol]       0.83876328 [kJ/mol]

  Total HF                       -176.53949212 [mEh]    -110.78020380 [kcal/mol]    -463.50437272 [kJ/mol]
  Total SAPT0                    -179.09249789 [mEh]    -112.38223911 [kcal/mol]    -470.20728844 [kJ/mol]
  Total SAPT2                    -170.44194105 [mEh]    -106.95393273 [kcal/mol]    -447.49525456 [kJ/mol]
  Total SAPT2+                   -170.78907673 [mEh]    -107.17176366 [kcal/mol]    -448.40665917 [kJ/mol]

  Special recipe for scaled SAPT0 (see Manual):
    Electrostatics sSAPT0        -157.70795896 [mEh]     -98.96323833 [kcal/mol]    -414.06218919 [kJ/mol]
    Exchange sSAPT0                39.62097326 [mEh]      24.86253608 [kcal/mol]     104.02485097 [kJ/mol]
    Induction sSAPT0              -57.63880312 [mEh]     -36.16889501 [kcal/mol]    -151.33065673 [kJ/mol]
    Dispersion sSAPT0              -2.54264308 [mEh]      -1.59553262 [kcal/mol]      -6.67570848 [kJ/mol]
  Total sSAPT0                   -178.26843189 [mEh]    -111.86512988 [kcal/mol]    -468.04370343 [kJ/mol]
  --------------------------------------------------------------------------------------------------------

*** Psi4 exiting successfully. Buy a developer a beer!
