                               Psi4 1.9 release

  ==> Input File <==

--------------------------------------------------------------------------
MEMORY 60 GB

molecule dimer {
1 1
Li     0.000000     0.000000     0.000000
--
0 1
O     -0.956247     0.863490    -1.749096
H     -1.677330     0.462424    -2.223924
H     -1.171884     1.781797    -1.643295
O      1.646899     1.167929    -0.206984
H      2.398522     0.950578    -0.761776
H      2.002825     1.745984     0.467071
O     -1.376351     0.325273     1.324880
H     -1.378159    -0.485756     1.792733
H     -2.258884     0.513625     1.057259
O     -0.433367    -1.659207    -1.078943
H     -0.338542    -2.445579    -0.643428
H     -1.348443    -1.450485    -1.100673
O      1.111588    -0.959952     1.543776
H      0.882604    -1.906565     1.587702
H      2.069318    -0.934575     1.478701

units ang
no_reorient
no_com
symmetry c1
}

set {
basis        aug-cc-pVTZ
scf_type     df
}

energy("sapt2+")
--------------------------------------------------------------------------

  //              Dimer HF             //
    Molecular point group: c1
  Charge       = 1
  Multiplicity = 1
  Basis Set: AUG-CC-PVTZ
    Blend: AUG-CC-PVTZ
  Basis Set: (AUG-CC-PVTZ AUX)
    Blend: AUG-CC-PVTZ-JKFIT + DEF2-UNIVERSAL-JKFIT
  @DF-RHF Final Energy:  -387.68826822599766
    Total Energy =                       -387.6882682259976605
 Dipole X            :          1.1997294           -1.6625754           -0.4628460
 Dipole Y            :          6.5328284           -7.3100049           -0.7771765
 Dipole Z            :          2.7097496           -2.4955081            0.2142415
 Magnitude           :                                                    0.9295854
  //            Monomer A HF           //
    Molecular point group: c1
  Multiplicity = 1
  Basis Set: AUG-CC-PVTZ
    Blend: AUG-CC-PVTZ
  Basis Set: (AUG-CC-PVTZ AUX)
    Blend: AUG-CC-PVTZ-JKFIT + DEF2-UNIVERSAL-JKFIT
  @DF-RHF Final Energy:    -7.23638511006364
    Total Energy =                         -7.2363851100636420
  //            Monomer B HF           //
    Molecular point group: c1

    Geometry (in Angstrom), charge = 0, multiplicity = 1:

       Center              X                  Y                   Z               Mass
    ------------   -----------------  -----------------  -----------------  -----------------
      Gh(LI)          0.000000000000     0.000000000000     0.000000000000     7.016003436600
         O           -0.956247000000     0.863490000000    -1.749096000000    15.994914619570
         H           -1.677330000000     0.462424000000    -2.223924000000     1.007825032230
         H           -1.171884000000     1.781797000000    -1.643295000000     1.007825032230
         O            1.646899000000     1.167929000000    -0.206984000000    15.994914619570
         H            2.398522000000     0.950578000000    -0.761776000000     1.007825032230
         H            2.002825000000     1.745984000000     0.467071000000     1.007825032230
         O           -1.376351000000     0.325273000000     1.324880000000    15.994914619570
         H           -1.378159000000    -0.485756000000     1.792733000000     1.007825032230
         H           -2.258884000000     0.513625000000     1.057259000000     1.007825032230
         O           -0.433367000000    -1.659207000000    -1.078943000000    15.994914619570
         H           -0.338542000000    -2.445579000000    -0.643428000000     1.007825032230
         H           -1.348443000000    -1.450485000000    -1.100673000000     1.007825032230
         O            1.111588000000    -0.959952000000     1.543776000000    15.994914619570
         H            0.882604000000    -1.906565000000     1.587702000000     1.007825032230
         H            2.069318000000    -0.934575000000     1.478701000000     1.007825032230

  Charge       = 0
  Multiplicity = 1
  Basis Set: AUG-CC-PVTZ
    Blend: AUG-CC-PVTZ
  Basis Set: (AUG-CC-PVTZ AUX)
    Blend: AUG-CC-PVTZ-JKFIT + DEF2-UNIVERSAL-JKFIT

    Orbital Energies [Eh]
    ---------------------

    Doubly Occupied:

       1A    -20.537555     2A    -20.530672     3A    -20.526421
       4A    -20.524978     5A    -20.524372     6A     -1.339851
       7A     -1.324969     8A     -1.321826     9A     -1.318709
      10A     -1.312210    11A     -0.720650    12A     -0.702007
      13A     -0.687884    14A     -0.683910    15A     -0.677447
      16A     -0.565259    17A     -0.554912    18A     -0.540597
      19A     -0.535155    20A     -0.529432    21A     -0.496441
      22A     -0.481392    23A     -0.470342    24A     -0.464197
      25A     -0.459354

  @DF-RHF Final Energy:  -380.26370759621830

   => Energetics <=

    Nuclear Repulsion Energy =            207.0151305755531439
    One-Electron Energy =                -938.8965828630099395
    Two-Electron Energy =                 351.6177446912384994
    Total Energy =                       -380.2637075962182962
 Dipole X            :          1.2417574           -1.6625754           -0.4208180
 Dipole Y            :          6.6242467           -7.3100049           -0.6857582
 Dipole Z            :          2.6927309           -2.4955081            0.1972228
 Magnitude           :                                                    0.8284014

    SAPT Results
  --------------------------------------------------------------------------------------------------------
    Electrostatics               -149.45166457 [mEh]     -93.78233539 [kcal/mol]    -392.38529127 [kJ/mol]
      Elst10,r                   -161.13751454 [mEh]    -101.11531695 [kcal/mol]    -423.06648613 [kJ/mol]
      Elst12,r                     11.68584996 [mEh]       7.33298156 [kcal/mol]      30.68119485 [kJ/mol]

    Exchange                       35.69129512 [mEh]      22.39662582 [kcal/mol]      93.70748242 [kJ/mol]
      Exch10                       32.63038764 [mEh]      20.47587738 [kcal/mol]      85.67107095 [kJ/mol]
      Exch10(S^2)                  32.34304460 [mEh]      20.29556690 [kcal/mol]      84.91665190 [kJ/mol]
      Exch11(S^2)                  -0.55361886 [mEh]      -0.34740108 [kcal/mol]      -1.45352612 [kJ/mol]
      Exch12(S^2)                   3.61452634 [mEh]       2.26814952 [kcal/mol]       9.48993760 [kJ/mol]

    Induction                     -66.59079685 [mEh]     -41.78635589 [kcal/mol]    -174.83411305 [kJ/mol]
      Ind20,r                     -77.06558383 [mEh]     -48.35938396 [kcal/mol]    -202.33566247 [kJ/mol]
      Ind22                        -9.52397022 [mEh]      -5.97638154 [kcal/mol]     -25.00518037 [kJ/mol]
      Exch-Ind20,r                 21.05122259 [mEh]      13.20984161 [kcal/mol]      55.26997731 [kJ/mol]
      Exch-Ind22                    2.60156619 [mEh]       1.63250743 [kcal/mol]       6.83041108 [kJ/mol]
      delta HF,r (2)               -3.65403158 [mEh]      -2.29293944 [kcal/mol]      -9.59365860 [kJ/mol]

    Dispersion                     -2.83964069 [mEh]      -1.78190144 [kcal/mol]      -7.45547561 [kJ/mol]
      Disp20                       -2.77605369 [mEh]      -1.74199999 [kcal/mol]      -7.28852795 [kJ/mol]
      Disp21                       -0.10165544 [mEh]      -0.06378975 [kcal/mol]      -0.26689631 [kJ/mol]
      Disp22 (SDQ)                 -0.05536815 [mEh]      -0.03474404 [kcal/mol]      -0.14536905 [kJ/mol]
      Disp22 (T)                   -0.15783018 [mEh]      -0.09903993 [kcal/mol]      -0.41438308 [kJ/mol]
      Est. Disp22 (T)              -0.18823189 [mEh]      -0.11811730 [kcal/mol]      -0.49420277 [kJ/mol]
      Exch-Disp20                   0.28166847 [mEh]       0.17674963 [kcal/mol]       0.73952047 [kJ/mol]

  Total HF                       -188.17551972 [mEh]    -118.08192135 [kcal/mol]    -494.05475895 [kJ/mol]
  Total SAPT0                    -190.66990493 [mEh]    -119.64717171 [kcal/mol]    -500.60376642 [kJ/mol]
  Total SAPT2                    -182.84555152 [mEh]    -114.73731582 [kcal/mol]    -480.06092938 [kJ/mol]
  Total SAPT2+                   -183.19080700 [mEh]    -114.95396690 [kcal/mol]    -480.96739751 [kJ/mol]

  Special recipe for scaled SAPT0 (see Manual):
    Electrostatics sSAPT0        -161.13751454 [mEh]    -101.11531695 [kcal/mol]    -423.06648613 [kJ/mol]
    Exchange sSAPT0                32.63038764 [mEh]      20.47587738 [kcal/mol]      85.67107095 [kJ/mol]
    Induction sSAPT0              -59.10232167 [mEh]     -37.08726677 [kcal/mol]    -155.17312417 [kJ/mol]
    Dispersion sSAPT0              -2.48681110 [mEh]      -1.56049752 [kcal/mol]      -6.52912164 [kJ/mol]
  Total sSAPT0                   -190.09625966 [mEh]    -119.28720387 [kcal/mol]    -499.09766099 [kJ/mol]
  --------------------------------------------------------------------------------------------------------

*** Psi4 exiting successfully. Buy a developer a beer!
