                               Psi4 1.9 release

  ==> Input File <==

--------------------------------------------------------------------------
MEMORY 60 GB

molecule dimer {
1 1
Li     0.000000     0.000000     0.000000
--
0 1
O     -0.255509     0.069921    -1.836571
H     -1.027344    -0.133534    -2.387653
H      0.486014    -0.175560    -2.395908
O      0.397253    -1.764707     0.271805
H      1.046759    -2.177183     0.906020
H      0.429144    -2.436723    -0.416891
O     -0.827489     1.270939     1.147935
H     -0.600437     2.141304     1.571362
H     -1.791433     1.178595     1.173077

units ang
no_reorient
no_com
symmetry c1
}

set {
basis        aug-cc-pVTZ
scf_type     df
}

energy("sapt2+")
--------------------------------------------------------------------------

  //              Dimer HF             //
    Molecular point group: c1
  Charge       = 1
  Multiplicity = 1
  Basis Set: AUG-CC-PVTZ
    Blend: AUG-CC-PVTZ
  Basis Set: (AUG-CC-PVTZ AUX)
    Blend: AUG-CC-PVTZ-JKFIT + DEF2-UNIVERSAL-JKFIT
  @DF-RHF Final Energy:  -235.54450988911265
    Total Energy =                       -235.5445098891126463
 Dipole X            :         12.9365640          -13.1208541           -0.1842902
 Dipole Y            :          8.8573588           -9.4370598           -0.5797011
 Dipole Z            :          8.6679918           -9.2306337           -0.5626419
 Magnitude           :                                                    0.8286025
  //            Monomer A HF           //
    Molecular point group: c1
  Multiplicity = 1
  Basis Set: AUG-CC-PVTZ
    Blend: AUG-CC-PVTZ
  Basis Set: (AUG-CC-PVTZ AUX)
    Blend: AUG-CC-PVTZ-JKFIT + DEF2-UNIVERSAL-JKFIT
  @DF-RHF Final Energy:    -7.23638455413672
    Total Energy =                         -7.2363845541367144
  //            Monomer B HF           //
    Molecular point group: c1

    Geometry (in Angstrom), charge = 0, multiplicity = 1:

       Center              X                  Y                   Z               Mass
    ------------   -----------------  -----------------  -----------------  -----------------
      Gh(LI)          0.000000000000     0.000000000000     0.000000000000     7.016003436600
         O           -0.255509000000     0.069921000000    -1.836571000000    15.994914619570
         H           -1.027344000000    -0.133534000000    -2.387653000000     1.007825032230
         H            0.486014000000    -0.175560000000    -2.395908000000     1.007825032230
         O            0.397253000000    -1.764707000000     0.271805000000    15.994914619570
         H            1.046759000000    -2.177183000000     0.906020000000     1.007825032230
         H            0.429144000000    -2.436723000000    -0.416891000000     1.007825032230
         O           -0.827489000000     1.270939000000     1.147935000000    15.994914619570
         H           -0.600437000000     2.141304000000     1.571362000000     1.007825032230
         H           -1.791433000000     1.178595000000     1.173077000000     1.007825032230

  Charge       = 0
  Multiplicity = 1
  Basis Set: AUG-CC-PVTZ
    Blend: AUG-CC-PVTZ
  Basis Set: (AUG-CC-PVTZ AUX)
    Blend: AUG-CC-PVTZ-JKFIT + DEF2-UNIVERSAL-JKFIT

    Orbital Energies [Eh]
    ---------------------

    Doubly Occupied:

       1A    -20.547853     2A    -20.544144     3A    -20.541231
       4A     -1.327042     5A     -1.320293     6A     -1.310780
       7A     -0.687309     8A     -0.681514     9A     -0.668110
      10A     -0.572204    11A     -0.553575    12A     -0.540846
      13A     -0.490773    14A     -0.478161    15A     -0.476324

  @DF-RHF Final Energy:  -228.16087436941052

   => Energetics <=

    Nuclear Repulsion Energy =             74.5235685701686066
    One-Electron Energy =                -463.8885652393940973
    Two-Electron Energy =                 161.2041222998149692
    Total Energy =                       -228.1608743694105215
 Dipole X            :         13.0576364          -13.1208541           -0.0632177
 Dipole Y            :          8.9932907           -9.4370598           -0.4437691
 Dipole Z            :          8.7788279           -9.2306337           -0.4518058
 Magnitude           :                                                    0.6364401

    SAPT Results
  --------------------------------------------------------------------------------------------------------
    Electrostatics               -126.94839980 [mEh]     -79.66132356 [kcal/mol]    -333.30297776 [kJ/mol]
      Elst10,r                   -138.31964401 [mEh]     -86.79688702 [kcal/mol]    -363.15817531 [kJ/mol]
      Elst12,r                     11.37124420 [mEh]       7.13556347 [kcal/mol]      29.85519755 [kJ/mol]

    Exchange                       46.29279552 [mEh]      29.04916776 [kcal/mol]     121.54171790 [kJ/mol]
      Exch10                       43.80753450 [mEh]      27.48964292 [kcal/mol]     115.01666597 [kJ/mol]
      Exch10(S^2)                  43.29798765 [mEh]      27.16989745 [kcal/mol]     113.67885091 [kJ/mol]
      Exch11(S^2)                  -0.51732790 [mEh]      -0.32462816 [kcal/mol]      -1.35824422 [kJ/mol]
      Exch12(S^2)                   3.00258893 [mEh]       1.88415300 [kcal/mol]       7.88329614 [kJ/mol]

    Induction                     -57.60348998 [mEh]     -36.14673569 [kcal/mol]    -151.23794212 [kJ/mol]
      Ind20,r                     -76.56100455 [mEh]     -48.04275568 [kcal/mol]    -201.01088975 [kJ/mol]
      Ind22                        -7.53301653 [mEh]      -4.72703924 [kcal/mol]     -19.77793219 [kJ/mol]
      Exch-Ind20,r                 27.11982003 [mEh]      17.01794400 [kcal/mol]      71.20307768 [kJ/mol]
      Exch-Ind22                    2.66838260 [mEh]       1.67443536 [kcal/mol]       7.00583756 [kJ/mol]
      delta HF,r (2)               -3.29767154 [mEh]      -2.06932013 [kcal/mol]      -8.65803543 [kJ/mol]

    Dispersion                     -2.77083505 [mEh]      -1.73872525 [kcal/mol]      -7.27482643 [kJ/mol]
      Disp20                       -2.77503459 [mEh]      -1.74136050 [kcal/mol]      -7.28585231 [kJ/mol]
      Disp21                       -0.10530759 [mEh]      -0.06608151 [kcal/mol]      -0.27648504 [kJ/mol]
      Disp22 (SDQ)                 -0.03321541 [mEh]      -0.02084299 [kcal/mol]      -0.08720706 [kJ/mol]
      Disp22 (T)                   -0.16006952 [mEh]      -0.10044514 [kcal/mol]      -0.42026247 [kJ/mol]
      Est. Disp22 (T)              -0.18061833 [mEh]      -0.11333971 [kcal/mol]      -0.47421335 [kJ/mol]
      Exch-Disp20                   0.32334087 [mEh]       0.20289946 [kcal/mol]       0.84893133 [kJ/mol]

  Total HF                       -147.25096557 [mEh]     -92.40137592 [kcal/mol]    -386.60735683 [kJ/mol]
  Total SAPT0                    -149.70265929 [mEh]     -93.93983695 [kcal/mol]    -393.04427782 [kJ/mol]
  Total SAPT2                    -140.71078799 [mEh]     -88.29735253 [kcal/mol]    -369.43612297 [kJ/mol]
  Total SAPT2+                   -141.02992932 [mEh]     -88.49761673 [kcal/mol]    -370.27402841 [kJ/mol]

  Special recipe for scaled SAPT0 (see Manual):
    Electrostatics sSAPT0        -138.31964401 [mEh]     -86.79688702 [kcal/mol]    -363.15817531 [kJ/mol]
    Exchange sSAPT0                43.80753450 [mEh]      27.48964292 [kcal/mol]     115.01666597 [kJ/mol]
    Induction sSAPT0              -51.77007558 [mEh]     -32.48621288 [kcal/mol]    -135.92231470 [kJ/mol]
    Dispersion sSAPT0              -2.44014327 [mEh]      -1.53121302 [kcal/mol]      -6.40659527 [kJ/mol]
  Total sSAPT0                   -148.72232836 [mEh]     -93.32467001 [kcal/mol]    -390.47041930 [kJ/mol]
  --------------------------------------------------------------------------------------------------------

*** Psi4 exiting successfully. Buy a developer a beer!
