                               Psi4 1.9 release

  ==> Input File <==

--------------------------------------------------------------------------
MEMORY 60 GB

molecule dimer {
1 1
Li     0.000000     0.000000     0.000000
--
0 1
O      0.974801    -1.457324    -0.803063
H      1.616648    -1.821333    -0.185071
H      0.543412    -2.209643    -1.228589
O     -1.022460    -0.705935     1.627113
H     -1.734123    -0.103167     1.913218
H     -1.500284    -1.468483     1.235082
O     -1.471986     0.365186    -1.104744
H     -1.395966     1.135543    -1.703561
H     -2.409858     0.169828    -1.010243
O      1.111405     1.672966    -0.206272
H      1.061116     2.268920     0.588148
H      1.217032     2.358049    -0.946568

units ang
no_reorient
no_com
symmetry c1
}

set {
basis        aug-cc-pVTZ
scf_type     df
}

energy("sapt2+")
--------------------------------------------------------------------------

  //              Dimer HF             //
    Molecular point group: c1
  Charge       = 1
  Multiplicity = 1
  Basis Set: AUG-CC-PVTZ
    Blend: AUG-CC-PVTZ
  Basis Set: (AUG-CC-PVTZ AUX)
    Blend: AUG-CC-PVTZ-JKFIT + DEF2-UNIVERSAL-JKFIT
  @DF-RHF Final Energy:  -311.61846237899948
    Total Energy =                       -311.6184623789994816
 Dipole X            :          9.8384375          -11.0888052           -1.2503677
 Dipole Y            :          1.6577997           -1.2682746            0.3895251
 Dipole Z            :          9.5169339           -9.8895264           -0.3725926
 Magnitude           :                                                    1.3616073
  //            Monomer A HF           //
    Molecular point group: c1
  Multiplicity = 1
  Basis Set: AUG-CC-PVTZ
    Blend: AUG-CC-PVTZ
  Basis Set: (AUG-CC-PVTZ AUX)
    Blend: AUG-CC-PVTZ-JKFIT + DEF2-UNIVERSAL-JKFIT
  @DF-RHF Final Energy:    -7.23638486969041
    Total Energy =                         -7.2363848696904123
  //            Monomer B HF           //
    Molecular point group: c1

    Geometry (in Angstrom), charge = 0, multiplicity = 1:

       Center              X                  Y                   Z               Mass
    ------------   -----------------  -----------------  -----------------  -----------------
      Gh(LI)          0.000000000000     0.000000000000     0.000000000000     7.016003436600
         O            0.974801000000    -1.457324000000    -0.803063000000    15.994914619570
         H            1.616648000000    -1.821333000000    -0.185071000000     1.007825032230
         H            0.543412000000    -2.209643000000    -1.228589000000     1.007825032230
         O           -1.022460000000    -0.705935000000     1.627113000000    15.994914619570
         H           -1.734123000000    -0.103167000000     1.913218000000     1.007825032230
         H           -1.500284000000    -1.468483000000     1.235082000000     1.007825032230
         O           -1.471986000000     0.365186000000    -1.104744000000    15.994914619570
         H           -1.395966000000     1.135543000000    -1.703561000000     1.007825032230
         H           -2.409858000000     0.169828000000    -1.010243000000     1.007825032230
         O            1.111405000000     1.672966000000    -0.206272000000    15.994914619570
         H            1.061116000000     2.268920000000     0.588148000000     1.007825032230
         H            1.217032000000     2.358049000000    -0.946568000000     1.007825032230

  Charge       = 0
  Multiplicity = 1
  Basis Set: AUG-CC-PVTZ
    Blend: AUG-CC-PVTZ
  Basis Set: (AUG-CC-PVTZ AUX)
    Blend: AUG-CC-PVTZ-JKFIT + DEF2-UNIVERSAL-JKFIT

    Orbital Energies [Eh]
    ---------------------

    Doubly Occupied:

       1A    -20.548163     2A    -20.540832     3A    -20.540516
       4A    -20.527191     5A     -1.319426     6A     -1.312688
       7A     -1.308494     8A     -1.304325     9A     -0.689900
      10A     -0.678250    11A     -0.676063    12A     -0.656941
      13A     -0.561634    14A     -0.550936    15A     -0.544325
      16A     -0.530806    17A     -0.489826    18A     -0.476857
      19A     -0.471211    20A     -0.463950

  @DF-RHF Final Energy:  -304.20911621880282

   => Energetics <=

    Nuclear Repulsion Energy =            131.2591083426225680
    One-Electron Energy =                -682.5517798077768248
    Two-Electron Energy =                 247.0835552463514659
    Total Energy =                       -304.2091162188028193
 Dipole X            :         10.0139060          -11.0888052           -1.0748991
 Dipole Y            :          1.6432945           -1.2682746            0.3750199
 Dipole Z            :          9.6648325           -9.8895264           -0.2246940
 Magnitude           :                                                    1.1604032

    SAPT Results
  --------------------------------------------------------------------------------------------------------
    Electrostatics               -141.59599326 [mEh]     -88.85282722 [kcal/mol]    -371.76022910 [kJ/mol]
      Elst10,r                   -153.27218609 [mEh]     -96.17974884 [kcal/mol]    -402.41606915 [kJ/mol]
      Elst12,r                     11.67619283 [mEh]       7.32692162 [kcal/mol]      30.65584005 [kJ/mol]

    Exchange                       41.44177632 [mEh]      26.00510725 [kcal/mol]     108.80536875 [kJ/mol]
      Exch10                       38.46607278 [mEh]      24.13782509 [kcal/mol]     100.99266017 [kJ/mol]
      Exch10(S^2)                  38.06934015 [mEh]      23.88887161 [kcal/mol]      99.95103880 [kJ/mol]
      Exch11(S^2)                  -0.56876608 [mEh]      -0.35690611 [kcal/mol]      -1.49329514 [kJ/mol]
      Exch12(S^2)                   3.54446963 [mEh]       2.22418827 [kcal/mol]       9.30600372 [kJ/mol]

    Induction                     -64.32973478 [mEh]     -40.36751802 [kcal/mol]    -168.89769540 [kJ/mol]
      Ind20,r                     -78.78046428 [mEh]     -49.43548769 [kcal/mol]    -206.83808048 [kJ/mol]
      Ind22                        -8.93472492 [mEh]      -5.60662453 [kcal/mol]     -23.45811704 [kJ/mol]
      Exch-Ind20,r                 24.33732046 [mEh]      15.27189916 [kcal/mol]      63.89762608 [kJ/mol]
      Exch-Ind22                    2.76016733 [mEh]       1.73203115 [kcal/mol]       7.24681832 [kJ/mol]
      delta HF,r (2)               -3.71203338 [mEh]      -2.32933611 [kcal/mol]      -9.74594229 [kJ/mol]

    Dispersion                     -2.89583692 [mEh]      -1.81716510 [kcal/mol]      -7.60301877 [kJ/mol]
      Disp20                       -2.86391919 [mEh]      -1.79713642 [kcal/mol]      -7.51921880 [kJ/mol]
      Disp21                       -0.10759971 [mEh]      -0.06751984 [kcal/mol]      -0.28250300 [kJ/mol]
      Disp22 (SDQ)                 -0.04691297 [mEh]      -0.02943833 [kcal/mol]      -0.12316999 [kJ/mol]
      Disp22 (T)                   -0.16032198 [mEh]      -0.10060356 [kcal/mol]      -0.42092531 [kJ/mol]
      Est. Disp22 (T)              -0.19052476 [mEh]      -0.11955609 [kcal/mol]      -0.50022269 [kJ/mol]
      Exch-Disp20                   0.31311972 [mEh]       0.19648559 [kcal/mol]       0.82209570 [kJ/mol]

  Total HF                       -172.96129051 [mEh]    -108.53484839 [kcal/mol]    -454.10980566 [kJ/mol]
  Total SAPT0                    -175.51208998 [mEh]    -110.13549923 [kcal/mol]    -460.80692876 [kJ/mol]
  Total SAPT2                    -167.03475120 [mEh]    -104.81588883 [kcal/mol]    -438.54967885 [kJ/mol]
  Total SAPT2+                   -167.37978864 [mEh]    -105.03240309 [kcal/mol]    -439.45557453 [kJ/mol]

  Special recipe for scaled SAPT0 (see Manual):
    Electrostatics sSAPT0        -153.27218609 [mEh]     -96.17974884 [kcal/mol]    -402.41606915 [kJ/mol]
    Exchange sSAPT0                38.46607278 [mEh]      24.13782509 [kcal/mol]     100.99266017 [kJ/mol]
    Induction sSAPT0              -57.38633954 [mEh]     -36.01047172 [kcal/mol]    -150.66781370 [kJ/mol]
    Dispersion sSAPT0              -2.54090774 [mEh]      -1.59444368 [kcal/mol]      -6.67115236 [kJ/mol]
  Total sSAPT0                   -174.73336059 [mEh]    -109.64683916 [kcal/mol]    -458.76237503 [kJ/mol]
  --------------------------------------------------------------------------------------------------------

*** Psi4 exiting successfully. Buy a developer a beer!
