                               Psi4 1.9 release

  ==> Input File <==

--------------------------------------------------------------------------
MEMORY 60 GB

molecule dimer {
1 1
Li     0.000000     0.000000     0.000000
--
0 1
O      1.062713     1.375749    -0.711183
H      1.377317     2.084377    -0.192248
H      1.714223     1.224250    -1.484560
O      0.041409    -1.808033    -0.905068
H     -0.852499    -2.198037    -1.105551
H      0.420454    -2.347752    -0.193979
O     -1.559472     0.921783     0.230278
H     -1.884578     1.208158    -0.631528
H     -2.246300     0.361082     0.596645
O      0.774279    -0.126335     1.869200
H      0.785258     0.524247     2.549420
H      0.581091    -0.983439     2.283012

units ang
no_reorient
no_com
symmetry c1
}

set {
basis        aug-cc-pVTZ
scf_type     df
}

energy("sapt2+")
--------------------------------------------------------------------------

  //              Dimer HF             //
    Molecular point group: c1
  Charge       = 1
  Multiplicity = 1
  Basis Set: AUG-CC-PVTZ
    Blend: AUG-CC-PVTZ
  Basis Set: (AUG-CC-PVTZ AUX)
    Blend: AUG-CC-PVTZ-JKFIT + DEF2-UNIVERSAL-JKFIT
  @DF-RHF Final Energy:  -311.61781520229903
    Total Energy =                       -311.6178152022990275
 Dipole X            :         -5.0690878            4.6230222           -0.4460656
 Dipole Y            :         -5.7106986            5.2500333           -0.4606653
 Dipole Z            :        -10.1126813           10.7469235            0.6342422
 Magnitude           :                                                    0.9019147
  //            Monomer A HF           //
    Molecular point group: c1
  Multiplicity = 1
  Basis Set: AUG-CC-PVTZ
    Blend: AUG-CC-PVTZ
  Basis Set: (AUG-CC-PVTZ AUX)
    Blend: AUG-CC-PVTZ-JKFIT + DEF2-UNIVERSAL-JKFIT
  @DF-RHF Final Energy:    -7.23638491196907
    Total Energy =                         -7.2363849119690693
  //            Monomer B HF           //
    Molecular point group: c1

    Geometry (in Angstrom), charge = 0, multiplicity = 1:

       Center              X                  Y                   Z               Mass
    ------------   -----------------  -----------------  -----------------  -----------------
      Gh(LI)          0.000000000000     0.000000000000     0.000000000000     7.016003436600
         O            1.062713000000     1.375749000000    -0.711183000000    15.994914619570
         H            1.377317000000     2.084377000000    -0.192248000000     1.007825032230
         H            1.714223000000     1.224250000000    -1.484560000000     1.007825032230
         O            0.041409000000    -1.808033000000    -0.905068000000    15.994914619570
         H           -0.852499000000    -2.198037000000    -1.105551000000     1.007825032230
         H            0.420454000000    -2.347752000000    -0.193979000000     1.007825032230
         O           -1.559472000000     0.921783000000     0.230278000000    15.994914619570
         H           -1.884578000000     1.208158000000    -0.631528000000     1.007825032230
         H           -2.246300000000     0.361082000000     0.596645000000     1.007825032230
         O            0.774279000000    -0.126335000000     1.869200000000    15.994914619570
         H            0.785258000000     0.524247000000     2.549420000000     1.007825032230
         H            0.581091000000    -0.983439000000     2.283012000000     1.007825032230

  Charge       = 0
  Multiplicity = 1
  Basis Set: AUG-CC-PVTZ
    Blend: AUG-CC-PVTZ
  Basis Set: (AUG-CC-PVTZ AUX)
    Blend: AUG-CC-PVTZ-JKFIT + DEF2-UNIVERSAL-JKFIT

    Orbital Energies [Eh]
    ---------------------

    Doubly Occupied:

       1A    -20.546598     2A    -20.538557     3A    -20.529014
       4A    -20.525870     5A     -1.326363     6A     -1.315757
       7A     -1.312704     8A     -1.300217     9A     -0.700206
      10A     -0.683208    11A     -0.680763    12A     -0.672953
      13A     -0.560645    14A     -0.549825    15A     -0.542325
      16A     -0.519995    17A     -0.487275    18A     -0.479158
      19A     -0.466137    20A     -0.463328

  @DF-RHF Final Energy:  -304.21033132822436

   => Energetics <=

    Nuclear Repulsion Energy =            132.9015564994494127
    One-Electron Energy =                -685.8219722344363163
    Two-Electron Energy =                 248.7100844067626042
    Total Energy =                       -304.2103313282243562
 Dipole X            :         -5.0633133            4.6230222           -0.4402910
 Dipole Y            :         -5.7714113            5.2500333           -0.5213780
 Dipole Z            :        -10.1881890           10.7469235            0.5587345
 Magnitude           :                                                    0.8819725

    SAPT Results
  --------------------------------------------------------------------------------------------------------
    Electrostatics               -146.17991640 [mEh]     -91.72928242 [kcal/mol]    -383.79531763 [kJ/mol]
      Elst10,r                   -157.18307074 [mEh]     -98.63386601 [kcal/mol]    -412.68409538 [kJ/mol]
      Elst12,r                     11.00315434 [mEh]       6.90458359 [kcal/mol]      28.88877775 [kJ/mol]

    Exchange                       50.34074044 [mEh]      31.58929154 [kcal/mol]     132.16959582 [kJ/mol]
      Exch10                       46.83357104 [mEh]      29.38850952 [kcal/mol]     122.96152383 [kJ/mol]
      Exch10(S^2)                  46.24997498 [mEh]      29.02229746 [kcal/mol]     121.42929258 [kJ/mol]
      Exch11(S^2)                  -0.71253151 [mEh]      -0.44712027 [kcal/mol]      -1.87075122 [kJ/mol]
      Exch12(S^2)                   4.21970091 [mEh]       2.64790230 [kcal/mol]      11.07882321 [kJ/mol]

    Induction                     -67.21157889 [mEh]     -42.17590250 [kcal/mol]    -176.46397605 [kJ/mol]
      Ind20,r                     -85.28447555 [mEh]     -53.51681637 [kcal/mol]    -223.91435971 [kJ/mol]
      Ind22                        -9.79377284 [mEh]      -6.14568524 [kcal/mol]     -25.71354705 [kJ/mol]
      Exch-Ind20,r                 29.01216620 [mEh]      18.20540915 [kcal/mol]      76.17143186 [kJ/mol]
      Exch-Ind22                    3.33165636 [mEh]       2.09064593 [kcal/mol]       8.74726257 [kJ/mol]
      delta HF,r (2)               -4.47715305 [mEh]      -2.80945596 [kcal/mol]     -11.75476372 [kJ/mol]

    Dispersion                     -3.27560747 [mEh]      -2.05547472 [kcal/mol]      -8.60010622 [kJ/mol]
      Disp20                       -3.25267442 [mEh]      -2.04108401 [kcal/mol]      -8.53989550 [kJ/mol]
      Disp21                       -0.12310311 [mEh]      -0.07724836 [kcal/mol]      -0.32320716 [kJ/mol]
      Disp22 (SDQ)                 -0.05637021 [mEh]      -0.03537284 [kcal/mol]      -0.14799996 [kJ/mol]
      Disp22 (T)                   -0.19123069 [mEh]      -0.11999907 [kcal/mol]      -0.50207610 [kJ/mol]
      Est. Disp22 (T)              -0.21816977 [mEh]      -0.13690360 [kcal/mol]      -0.57280466 [kJ/mol]
      Exch-Disp20                   0.37471003 [mEh]       0.23513410 [kcal/mol]       0.98380106 [kJ/mol]

  Total HF                       -171.09896211 [mEh]    -107.36621967 [kcal/mol]    -449.22026312 [kJ/mol]
  Total SAPT0                    -173.97692649 [mEh]    -109.17216959 [kcal/mol]    -456.77635756 [kJ/mol]
  Total SAPT2                    -165.92871923 [mEh]    -104.12184329 [kcal/mol]    -435.64579231 [kJ/mol]
  Total SAPT2+                   -166.32636231 [mEh]    -104.37136809 [kcal/mol]    -436.68980408 [kJ/mol]

  Special recipe for scaled SAPT0 (see Manual):
    Electrostatics sSAPT0        -157.18307074 [mEh]     -98.63386601 [kcal/mol]    -412.68409538 [kJ/mol]
    Exchange sSAPT0                46.83357104 [mEh]      29.38850952 [kcal/mol]     122.96152383 [kJ/mol]
    Induction sSAPT0              -59.63729338 [mEh]     -37.42296659 [kcal/mol]    -156.57769220 [kJ/mol]
    Dispersion sSAPT0              -2.86360003 [mEh]      -1.79693615 [kcal/mol]      -7.51838085 [kJ/mol]
  Total sSAPT0                   -172.85039311 [mEh]    -108.46525923 [kcal/mol]    -453.81864460 [kJ/mol]
  --------------------------------------------------------------------------------------------------------

*** Psi4 exiting successfully. Buy a developer a beer!
