                               Psi4 1.9 release

  ==> Input File <==

--------------------------------------------------------------------------
MEMORY 60 GB

molecule dimer {
1 1
Li     0.000000     0.000000     0.000000
--
0 1
O      1.865459    -0.354169     0.201545
H      2.093877    -0.548368     1.130116
H      2.178545    -1.139580    -0.260272
O      0.175866     1.813815     0.284345
H     -0.515507     2.243153     0.826268
H      0.889311     1.834078     0.952204
O     -0.923465    -0.274645    -1.649009
H     -0.830755     0.486977    -2.218102
H     -1.826401    -0.476768    -1.767965
O     -1.217772    -1.202794     1.092934
H     -1.879809    -1.607959     0.562364
H     -1.655044    -0.939992     1.956239

units ang
no_reorient
no_com
symmetry c1
}

set {
basis        aug-cc-pVTZ
scf_type     df
}

energy("sapt2+")
--------------------------------------------------------------------------

  //              Dimer HF             //
    Molecular point group: c1
  Charge       = 1
  Multiplicity = 1
  Basis Set: AUG-CC-PVTZ
    Blend: AUG-CC-PVTZ
  Basis Set: (AUG-CC-PVTZ AUX)
    Blend: AUG-CC-PVTZ-JKFIT + DEF2-UNIVERSAL-JKFIT
  @DF-RHF Final Energy:  -311.61792732077913
    Total Energy =                       -311.6179273207791312
 Dipole X            :          3.5249478           -4.4315571           -0.9066093
 Dipole Y            :          0.4719869           -0.5495380           -0.0775511
 Dipole Z            :         -0.3367606            1.1704434            0.8336828
 Magnitude           :                                                    1.2340914
  //            Monomer A HF           //
    Molecular point group: c1
  Multiplicity = 1
  Basis Set: AUG-CC-PVTZ
    Blend: AUG-CC-PVTZ
  Basis Set: (AUG-CC-PVTZ AUX)
    Blend: AUG-CC-PVTZ-JKFIT + DEF2-UNIVERSAL-JKFIT
  @DF-RHF Final Energy:    -7.23638492991637
    Total Energy =                         -7.2363849299163707
  //            Monomer B HF           //
    Molecular point group: c1

    Geometry (in Angstrom), charge = 0, multiplicity = 1:

       Center              X                  Y                   Z               Mass
    ------------   -----------------  -----------------  -----------------  -----------------
      Gh(LI)          0.000000000000     0.000000000000     0.000000000000     7.016003436600
         O            1.865459000000    -0.354169000000     0.201545000000    15.994914619570
         H            2.093877000000    -0.548368000000     1.130116000000     1.007825032230
         H            2.178545000000    -1.139580000000    -0.260272000000     1.007825032230
         O            0.175866000000     1.813815000000     0.284345000000    15.994914619570
         H           -0.515507000000     2.243153000000     0.826268000000     1.007825032230
         H            0.889311000000     1.834078000000     0.952204000000     1.007825032230
         O           -0.923465000000    -0.274645000000    -1.649009000000    15.994914619570
         H           -0.830755000000     0.486977000000    -2.218102000000     1.007825032230
         H           -1.826401000000    -0.476768000000    -1.767965000000     1.007825032230
         O           -1.217772000000    -1.202794000000     1.092934000000    15.994914619570
         H           -1.879809000000    -1.607959000000     0.562364000000     1.007825032230
         H           -1.655044000000    -0.939992000000     1.956239000000     1.007825032230

  Charge       = 0
  Multiplicity = 1
  Basis Set: AUG-CC-PVTZ
    Blend: AUG-CC-PVTZ
  Basis Set: (AUG-CC-PVTZ AUX)
    Blend: AUG-CC-PVTZ-JKFIT + DEF2-UNIVERSAL-JKFIT

    Orbital Energies [Eh]
    ---------------------

    Doubly Occupied:

       1A    -20.545456     2A    -20.536186     3A    -20.535494
       4A    -20.532690     5A     -1.331740     6A     -1.322670
       7A     -1.317633     8A     -1.309475     9A     -0.696545
      10A     -0.683317    11A     -0.677915    12A     -0.655072
      13A     -0.569151    14A     -0.558251    15A     -0.548595
      16A     -0.546281    17A     -0.492570    18A     -0.477852
      19A     -0.472294    20A     -0.465404

  @DF-RHF Final Energy:  -304.21243108950682

   => Energetics <=

    Nuclear Repulsion Energy =            133.9847158611756015
    One-Electron Energy =                -687.8451069234604347
    Two-Electron Energy =                 249.6479599727780396
    Total Energy =                       -304.2124310895068220
 Dipole X            :          3.5905545           -4.4315571           -0.8410025
 Dipole Y            :          0.4332078           -0.5495380           -0.1163303
 Dipole Z            :         -0.4031143            1.1704434            0.7673291
 Magnitude           :                                                    1.1443828

    SAPT Results
  --------------------------------------------------------------------------------------------------------
    Electrostatics               -145.03885455 [mEh]     -91.01325529 [kcal/mol]    -380.79946015 [kJ/mol]
      Elst10,r                   -156.01087069 [mEh]     -97.89829937 [kcal/mol]    -409.60648457 [kJ/mol]
      Elst12,r                     10.97201615 [mEh]       6.88504408 [kcal/mol]      28.80702442 [kJ/mol]

    Exchange                       51.67633426 [mEh]      32.42738932 [kcal/mol]     135.67619692 [kJ/mol]
      Exch10                       48.08171702 [mEh]      30.17173294 [kcal/mol]     126.23853064 [kJ/mol]
      Exch10(S^2)                  47.46634134 [mEh]      29.78557887 [kcal/mol]     124.62286201 [kJ/mol]
      Exch11(S^2)                  -0.75122624 [mEh]      -0.47140158 [kcal/mol]      -1.97234423 [kJ/mol]
      Exch12(S^2)                   4.34584349 [mEh]       2.72705796 [kcal/mol]      11.41001051 [kJ/mol]

    Induction                     -67.64396912 [mEh]     -42.44723147 [kcal/mol]    -177.59921645 [kJ/mol]
      Ind20,r                     -86.23572005 [mEh]     -54.11373131 [kcal/mol]    -226.41185179 [kJ/mol]
      Ind22                        -9.83195821 [mEh]      -6.16964692 [kcal/mol]     -25.81380271 [kJ/mol]
      Exch-Ind20,r                 29.55933751 [mEh]      18.54876432 [kcal/mol]      77.60802993 [kJ/mol]
      Exch-Ind22                    3.37013677 [mEh]       2.11479275 [kcal/mol]       8.84829287 [kJ/mol]
      delta HF,r (2)               -4.50576514 [mEh]      -2.82741031 [kcal/mol]     -11.82988475 [kJ/mol]

    Dispersion                     -3.35973938 [mEh]      -2.10826829 [kcal/mol]      -8.82099453 [kJ/mol]
      Disp20                       -3.34261160 [mEh]      -2.09752045 [kcal/mol]      -8.77602555 [kJ/mol]
      Disp21                       -0.12533207 [mEh]      -0.07864706 [kcal/mol]      -0.32905929 [kJ/mol]
      Disp22 (SDQ)                 -0.05713292 [mEh]      -0.03585145 [kcal/mol]      -0.15000245 [kJ/mol]
      Disp22 (T)                   -0.19526842 [mEh]      -0.12253278 [kcal/mol]      -0.51267715 [kJ/mol]
      Est. Disp22 (T)              -0.22335794 [mEh]      -0.14015923 [kcal/mol]      -0.58642620 [kJ/mol]
      Exch-Disp20                   0.38869515 [mEh]       0.24390989 [kcal/mol]       1.02051897 [kJ/mol]

  Total HF                       -169.11130136 [mEh]    -106.11894372 [kcal/mol]    -444.00166054 [kJ/mol]
  Total SAPT0                    -172.06521781 [mEh]    -107.97255428 [kcal/mol]    -451.75716712 [kJ/mol]
  Total SAPT2                    -163.96040585 [mEh]    -102.88670800 [kcal/mol]    -430.47798626 [kJ/mol]
  Total SAPT2+                   -164.36622878 [mEh]    -103.14136573 [kcal/mol]    -431.54347421 [kJ/mol]

  Special recipe for scaled SAPT0 (see Manual):
    Electrostatics sSAPT0        -156.01087069 [mEh]     -97.89829937 [kcal/mol]    -409.60648457 [kJ/mol]
    Exchange sSAPT0                48.08171702 [mEh]      30.17173294 [kcal/mol]     126.23853064 [kJ/mol]
    Induction sSAPT0              -60.01751559 [mEh]     -37.66155963 [kcal/mol]    -157.57596547 [kJ/mol]
    Dispersion sSAPT0              -2.93860194 [mEh]      -1.84400056 [kcal/mol]      -7.71529834 [kJ/mol]
  Total sSAPT0                   -170.88527121 [mEh]    -107.23212661 [kcal/mol]    -448.65921774 [kJ/mol]
  --------------------------------------------------------------------------------------------------------

*** Psi4 exiting successfully. Buy a developer a beer!
