                               Psi4 1.9 release

  ==> Input File <==

--------------------------------------------------------------------------
MEMORY 60 GB

molecule dimer {
1 1
Li     0.000000     0.000000     0.000000
--
0 1
O     -1.829508    -0.641529    -0.116596
H     -2.245218    -1.401823     0.337083
H     -2.405229     0.147066     0.040068
O      1.045908    -1.319112     0.956515
H      0.891268    -2.074872     0.424262
H      1.373886    -1.802633     1.730328
O     -0.336450     1.237982     1.473212
H     -0.080217     1.043728     2.387034
H     -1.249922     1.540474     1.565383
O      0.944052     0.330530    -1.628880
H      1.016951    -0.286313    -2.447950
H      1.828938     0.753977    -1.669468

units ang
no_reorient
no_com
symmetry c1
}

set {
basis        aug-cc-pVTZ
scf_type     df
}

energy("sapt2+")
--------------------------------------------------------------------------

  //              Dimer HF             //
    Molecular point group: c1
  Charge       = 1
  Multiplicity = 1
  Basis Set: AUG-CC-PVTZ
    Blend: AUG-CC-PVTZ
  Basis Set: (AUG-CC-PVTZ AUX)
    Blend: AUG-CC-PVTZ-JKFIT + DEF2-UNIVERSAL-JKFIT
  @DF-RHF Final Energy:  -311.61185069008928
    Total Energy =                       -311.6118506900892839
 Dipole X            :          3.9720053           -4.3039023           -0.3318970
 Dipole Y            :          8.9019754           -9.8595100           -0.9575346
 Dipole Z            :        -14.0302567           14.8168663            0.7866096
 Magnitude           :                                                    1.2828807
  //            Monomer A HF           //
    Molecular point group: c1
  Multiplicity = 1
  Basis Set: AUG-CC-PVTZ
    Blend: AUG-CC-PVTZ
  Basis Set: (AUG-CC-PVTZ AUX)
    Blend: AUG-CC-PVTZ-JKFIT + DEF2-UNIVERSAL-JKFIT
  @DF-RHF Final Energy:    -7.23638493146562
    Total Energy =                         -7.2363849314656177
  //            Monomer B HF           //
    Molecular point group: c1

    Geometry (in Angstrom), charge = 0, multiplicity = 1:

       Center              X                  Y                   Z               Mass
    ------------   -----------------  -----------------  -----------------  -----------------
      Gh(LI)          0.000000000000     0.000000000000     0.000000000000     7.016003436600
         O           -1.829508000000    -0.641529000000    -0.116596000000    15.994914619570
         H           -2.245218000000    -1.401823000000     0.337083000000     1.007825032230
         H           -2.405229000000     0.147066000000     0.040068000000     1.007825032230
         O            1.045908000000    -1.319112000000     0.956515000000    15.994914619570
         H            0.891268000000    -2.074872000000     0.424262000000     1.007825032230
         H            1.373886000000    -1.802633000000     1.730328000000     1.007825032230
         O           -0.336450000000     1.237982000000     1.473212000000    15.994914619570
         H           -0.080217000000     1.043728000000     2.387034000000     1.007825032230
         H           -1.249922000000     1.540474000000     1.565383000000     1.007825032230
         O            0.944052000000     0.330530000000    -1.628880000000    15.994914619570
         H            1.016951000000    -0.286313000000    -2.447950000000     1.007825032230
         H            1.828938000000     0.753977000000    -1.669468000000     1.007825032230

  Charge       = 0
  Multiplicity = 1
  Basis Set: AUG-CC-PVTZ
    Blend: AUG-CC-PVTZ
  Basis Set: (AUG-CC-PVTZ AUX)
    Blend: AUG-CC-PVTZ-JKFIT + DEF2-UNIVERSAL-JKFIT

    Orbital Energies [Eh]
    ---------------------

    Doubly Occupied:

       1A    -20.541219     2A    -20.540885     3A    -20.537227
       4A    -20.534282     5A     -1.330381     6A     -1.316323
       7A     -1.308879     8A     -1.297702     9A     -0.685932
      10A     -0.674202    11A     -0.668091    12A     -0.646889
      13A     -0.573056    14A     -0.550676    15A     -0.543361
      16A     -0.538747    17A     -0.495561    18A     -0.477213
      19A     -0.467849    20A     -0.460282

  @DF-RHF Final Energy:  -304.20201124495043

   => Energetics <=

    Nuclear Repulsion Energy =            132.7754997904124252
    One-Electron Energy =                -685.5774981433900166
    Two-Electron Energy =                 248.5999871080271078
    Total Energy =                       -304.2020112449504268
 Dipole X            :          4.0094330           -4.3039023           -0.2944693
 Dipole Y            :          9.0532595           -9.8595100           -0.8062505
 Dipole Z            :        -14.1893744           14.8168663            0.6274920
 Magnitude           :                                                    1.0632489

    SAPT Results
  --------------------------------------------------------------------------------------------------------
    Electrostatics               -140.07979165 [mEh]     -87.90139635 [kcal/mol]    -367.77944231 [kJ/mol]
      Elst10,r                   -153.06533822 [mEh]     -96.04994984 [kcal/mol]    -401.87299013 [kJ/mol]
      Elst12,r                     12.98554657 [mEh]       8.14855349 [kcal/mol]      34.09354781 [kJ/mol]

    Exchange                       42.33942575 [mEh]      26.56839077 [kcal/mol]     111.16214699 [kJ/mol]
      Exch10                       39.56405474 [mEh]      24.82681917 [kcal/mol]     103.87541141 [kJ/mol]
      Exch10(S^2)                  39.14356961 [mEh]      24.56296077 [kcal/mol]     102.77142785 [kJ/mol]
      Exch11(S^2)                  -0.61039906 [mEh]      -0.38303119 [kcal/mol]      -1.60260252 [kJ/mol]
      Exch12(S^2)                   3.38577007 [mEh]       2.12460280 [kcal/mol]       8.88933810 [kJ/mol]

    Induction                     -66.12561725 [mEh]     -41.49445128 [kcal/mol]    -173.61278417 [kJ/mol]
      Ind20,r                     -80.79632676 [mEh]     -50.70046049 [kcal/mol]    -212.13072669 [kJ/mol]
      Ind22                        -8.85693353 [mEh]      -5.55780970 [kcal/mol]     -23.25387579 [kJ/mol]
      Exch-Ind20,r                 24.48945721 [mEh]      15.36736640 [kcal/mol]      64.29706104 [kJ/mol]
      Exch-Ind22                    2.68454648 [mEh]       1.68457835 [kcal/mol]       7.04827582 [kJ/mol]
      delta HF,r (2)               -3.64636064 [mEh]      -2.28812585 [kcal/mol]      -9.57351854 [kJ/mol]

    Dispersion                     -3.03694156 [mEh]      -1.90570960 [kcal/mol]      -7.97348897 [kJ/mol]
      Disp20                       -3.02207800 [mEh]      -1.89638258 [kcal/mol]      -7.93446470 [kJ/mol]
      Disp21                       -0.10043678 [mEh]      -0.06302503 [kcal/mol]      -0.26369673 [kJ/mol]
      Disp22 (SDQ)                 -0.04212079 [mEh]      -0.02643120 [kcal/mol]      -0.11058813 [kJ/mol]
      Disp22 (T)                   -0.17456152 [mEh]      -0.10953901 [kcal/mol]      -0.45831122 [kJ/mol]
      Est. Disp22 (T)              -0.20078038 [mEh]      -0.12599159 [kcal/mol]      -0.52714882 [kJ/mol]
      Exch-Disp20                   0.32847440 [mEh]       0.20612080 [kcal/mol]       0.86240941 [kJ/mol]

  Total HF                       -173.45451367 [mEh]    -108.84435060 [kcal/mol]    -455.40476291 [kJ/mol]
  Total SAPT0                    -176.14811728 [mEh]    -110.53461238 [kcal/mol]    -462.47681819 [kJ/mol]
  Total SAPT2                    -166.55958675 [mEh]    -104.51771864 [kcal/mol]    -437.30213477 [kJ/mol]
  Total SAPT2+                   -166.90292471 [mEh]    -104.73316646 [kcal/mol]    -438.20356846 [kJ/mol]

  Special recipe for scaled SAPT0 (see Manual):
    Electrostatics sSAPT0        -153.06533822 [mEh]     -96.04994984 [kcal/mol]    -401.87299013 [kJ/mol]
    Exchange sSAPT0                39.56405474 [mEh]      24.82681917 [kcal/mol]     103.87541141 [kJ/mol]
    Induction sSAPT0              -59.15551563 [mEh]     -37.12064648 [kcal/mol]    -155.31278488 [kJ/mol]
    Dispersion sSAPT0              -2.68290394 [mEh]      -1.68354764 [kcal/mol]      -7.04396334 [kJ/mol]
  Total sSAPT0                   -175.33970305 [mEh]    -110.02732479 [kcal/mol]    -460.35432693 [kJ/mol]
  --------------------------------------------------------------------------------------------------------

*** Psi4 exiting successfully. Buy a developer a beer!
