                               Psi4 1.9 release

  ==> Input File <==

--------------------------------------------------------------------------
MEMORY 60 GB

molecule dimer {
1 1
Li     0.000000     0.000000     0.000000
--
0 1
O     -0.960185    -1.720806     0.734715
H     -1.609753    -1.980636     0.053101
H     -1.464227    -1.639800     1.581140
O     -0.437682     0.868054     1.944262
H      0.112980     1.630091     1.719873
H      0.152970     0.176865     2.309788
O     -1.028560     1.162893    -1.082054
H     -1.748052     1.570993    -0.564156
H     -1.147301     1.431115    -1.976130
O      1.527560    -0.693332    -0.338641
H      1.804729    -1.158174    -1.131997
H      2.284838    -0.148433    -0.221551

units ang
no_reorient
no_com
symmetry c1
}

set {
basis        aug-cc-pVTZ
scf_type     df
}

energy("sapt2+")
--------------------------------------------------------------------------

  //              Dimer HF             //
    Molecular point group: c1
  Charge       = 1
  Multiplicity = 1
  Basis Set: AUG-CC-PVTZ
    Blend: AUG-CC-PVTZ
  Basis Set: (AUG-CC-PVTZ AUX)
    Blend: AUG-CC-PVTZ-JKFIT + DEF2-UNIVERSAL-JKFIT
  @DF-RHF Final Energy:  -311.60822407328419
    Total Energy =                       -311.6082240732841910
 Dipole X            :         16.6843867          -16.6385699            0.0458168
 Dipole Y            :          6.3991954           -6.0159563            0.3832390
 Dipole Z            :        -22.8294781           22.3674107           -0.4620674
 Magnitude           :                                                    0.6020612
  //            Monomer A HF           //
    Molecular point group: c1
  Multiplicity = 1
  Basis Set: AUG-CC-PVTZ
    Blend: AUG-CC-PVTZ
  Basis Set: (AUG-CC-PVTZ AUX)
    Blend: AUG-CC-PVTZ-JKFIT + DEF2-UNIVERSAL-JKFIT
  @DF-RHF Final Energy:    -7.23638487092392
    Total Energy =                         -7.2363848709239171
  //            Monomer B HF           //
    Molecular point group: c1

    Geometry (in Angstrom), charge = 0, multiplicity = 1:

       Center              X                  Y                   Z               Mass
    ------------   -----------------  -----------------  -----------------  -----------------
      Gh(LI)          0.000000000000     0.000000000000     0.000000000000     7.016003436600
         O           -0.960185000000    -1.720806000000     0.734715000000    15.994914619570
         H           -1.609753000000    -1.980636000000     0.053101000000     1.007825032230
         H           -1.464227000000    -1.639800000000     1.581140000000     1.007825032230
         O           -0.437682000000     0.868054000000     1.944262000000    15.994914619570
         H            0.112980000000     1.630091000000     1.719873000000     1.007825032230
         H            0.152970000000     0.176865000000     2.309788000000     1.007825032230
         O           -1.028560000000     1.162893000000    -1.082054000000    15.994914619570
         H           -1.748052000000     1.570993000000    -0.564156000000     1.007825032230
         H           -1.147301000000     1.431115000000    -1.976130000000     1.007825032230
         O            1.527560000000    -0.693332000000    -0.338641000000    15.994914619570
         H            1.804729000000    -1.158174000000    -1.131997000000     1.007825032230
         H            2.284838000000    -0.148433000000    -0.221551000000     1.007825032230

  Charge       = 0
  Multiplicity = 1
  Basis Set: AUG-CC-PVTZ
    Blend: AUG-CC-PVTZ
  Basis Set: (AUG-CC-PVTZ AUX)
    Blend: AUG-CC-PVTZ-JKFIT + DEF2-UNIVERSAL-JKFIT

    Orbital Energies [Eh]
    ---------------------

    Doubly Occupied:

       1A    -20.541922     2A    -20.538763     3A    -20.538404
       4A    -20.533054     5A     -1.333345     6A     -1.327573
       7A     -1.315381     8A     -1.303122     9A     -0.698772
      10A     -0.689452    11A     -0.681698    12A     -0.668986
      13A     -0.574548    14A     -0.554012    15A     -0.548775
      16A     -0.532623    17A     -0.486268    18A     -0.484831
      19A     -0.480723    20A     -0.462490

  @DF-RHF Final Energy:  -304.22003934777393

   => Energetics <=

    Nuclear Repulsion Energy =            133.3831100925160911
    One-Electron Energy =                -686.6168040561019552
    Two-Electron Energy =                 249.0136546158119586
    Total Energy =                       -304.2200393477739340
 Dipole X            :         16.7721580          -16.6385699            0.1335881
 Dipole Y            :          6.4312542           -6.0159563            0.4152979
 Dipole Z            :        -22.9168477           22.3674107           -0.5494370
 Magnitude           :                                                    0.7015690

    SAPT Results
  --------------------------------------------------------------------------------------------------------
    Electrostatics               -132.92558121 [mEh]     -83.41206152 [kcal/mol]    -348.99606539 [kJ/mol]
      Elst10,r                   -143.03658470 [mEh]     -89.75681200 [kcal/mol]    -375.54250140 [kJ/mol]
      Elst12,r                     10.11100349 [mEh]       6.34475048 [kcal/mol]      26.54643601 [kJ/mol]

    Exchange                       54.60092573 [mEh]      34.26259817 [kcal/mol]     143.35471074 [kJ/mol]
      Exch10                       51.34770931 [mEh]      32.22117405 [kcal/mol]     134.81339222 [kJ/mol]
      Exch10(S^2)                  50.65411766 [mEh]      31.78593872 [kcal/mol]     132.99236760 [kJ/mol]
      Exch11(S^2)                  -0.71152383 [mEh]      -0.44648795 [kcal/mol]      -1.86810557 [kJ/mol]
      Exch12(S^2)                   3.96474025 [mEh]       2.48791207 [kcal/mol]      10.40942409 [kJ/mol]

    Induction                     -66.20910157 [mEh]     -41.54683849 [kcal/mol]    -173.83197222 [kJ/mol]
      Ind20,r                     -86.12052600 [mEh]     -54.04144595 [kcal/mol]    -226.10940987 [kJ/mol]
      Ind22                        -9.51603091 [mEh]      -5.97139955 [kcal/mol]     -24.98433571 [kJ/mol]
      Exch-Ind20,r                 30.93223254 [mEh]      19.41026896 [kcal/mol]      81.21256534 [kJ/mol]
      Exch-Ind22                    3.41790854 [mEh]       2.14476999 [kcal/mol]       8.97371762 [kJ/mol]
      delta HF,r (2)               -4.92268573 [mEh]      -3.08903193 [kcal/mol]     -12.92450960 [kJ/mol]

    Dispersion                     -3.35424489 [mEh]      -2.10482045 [kcal/mol]      -8.80656875 [kJ/mol]
      Disp20                       -3.34940695 [mEh]      -2.10178459 [kcal/mol]      -8.79386675 [kJ/mol]
      Disp21                       -0.12313949 [mEh]      -0.07727119 [kcal/mol]      -0.32330268 [kJ/mol]
      Disp22 (SDQ)                 -0.05292652 [mEh]      -0.03321189 [kcal/mol]      -0.13895856 [kJ/mol]
      Disp22 (T)                   -0.19192391 [mEh]      -0.12043407 [kcal/mol]      -0.50389616 [kJ/mol]
      Est. Disp22 (T)              -0.21981226 [mEh]      -0.13793428 [kcal/mol]      -0.57711702 [kJ/mol]
      Exch-Disp20                   0.39104033 [mEh]       0.24538151 [kcal/mol]       1.02667625 [kJ/mol]

  Total HF                       -151.79985459 [mEh]     -95.25584687 [kcal/mol]    -398.55046331 [kJ/mol]
  Total SAPT0                    -154.75822121 [mEh]     -97.11224995 [kcal/mol]    -406.31765381 [kJ/mol]
  Total SAPT2                    -147.49212368 [mEh]     -92.55270491 [kcal/mol]    -387.24051736 [kJ/mol]
  Total SAPT2+                   -147.88800195 [mEh]     -92.80112228 [kcal/mol]    -388.27989562 [kJ/mol]

  Special recipe for scaled SAPT0 (see Manual):
    Electrostatics sSAPT0        -143.03658470 [mEh]     -89.75681200 [kcal/mol]    -375.54250140 [kJ/mol]
    Exchange sSAPT0                51.34770931 [mEh]      32.22117405 [kcal/mol]     134.81339222 [kJ/mol]
    Induction sSAPT0              -58.82286396 [mEh]     -36.91190441 [kcal/mol]    -154.43940806 [kJ/mol]
    Dispersion sSAPT0              -2.94208248 [mEh]      -1.84618463 [kcal/mol]      -7.72443648 [kJ/mol]
  Total sSAPT0                   -153.45382183 [mEh]     -96.29372699 [kcal/mol]    -402.89295371 [kJ/mol]
  --------------------------------------------------------------------------------------------------------

*** Psi4 exiting successfully. Buy a developer a beer!
