                               Psi4 1.9 release

  ==> Input File <==

--------------------------------------------------------------------------
MEMORY 60 GB

molecule dimer {
1 1
Li     0.000000     0.000000     0.000000
--
0 1
O     -0.979497     1.661715    -0.383017
H     -1.942918     1.715495    -0.206976
H     -0.939941     1.583322    -1.344780
O     -0.874120    -1.338989    -0.808144
H     -1.695116    -1.751423    -0.533523
H     -0.327135    -2.063220    -1.130349
O      0.608715     0.248553     1.781960
H      1.153588     0.893218     2.259355
H     -0.175350     0.061724     2.297094
O      1.616898    -0.021797    -1.057657
H      1.564752    -0.251149    -1.971527
H      2.506419    -0.320433    -0.827794

units ang
no_reorient
no_com
symmetry c1
}

set {
basis        aug-cc-pVTZ
scf_type     df
}

energy("sapt2+")
--------------------------------------------------------------------------

  //              Dimer HF             //
    Molecular point group: c1
  Charge       = 1
  Multiplicity = 1
  Basis Set: AUG-CC-PVTZ
    Blend: AUG-CC-PVTZ
  Basis Set: (AUG-CC-PVTZ AUX)
    Blend: AUG-CC-PVTZ-JKFIT + DEF2-UNIVERSAL-JKFIT
  @DF-RHF Final Energy:  -311.62421614572315
    Total Energy =                       -311.6242161457231532
 Dipole X            :         -6.2175096            5.8964501           -0.3210595
 Dipole Y            :         -8.8437721            8.0566395           -0.7871326
 Dipole Z            :          9.4192794           -9.8140356           -0.3947563
 Magnitude           :                                                    0.9372777
  //            Monomer A HF           //
    Molecular point group: c1
  Multiplicity = 1
  Basis Set: AUG-CC-PVTZ
    Blend: AUG-CC-PVTZ
  Basis Set: (AUG-CC-PVTZ AUX)
    Blend: AUG-CC-PVTZ-JKFIT + DEF2-UNIVERSAL-JKFIT
  @DF-RHF Final Energy:    -7.23638496700148
    Total Energy =                         -7.2363849670014799
  //            Monomer B HF           //
    Molecular point group: c1

    Geometry (in Angstrom), charge = 0, multiplicity = 1:

       Center              X                  Y                   Z               Mass
    ------------   -----------------  -----------------  -----------------  -----------------
      Gh(LI)          0.000000000000     0.000000000000     0.000000000000     7.016003436600
         O           -0.979497000000     1.661715000000    -0.383017000000    15.994914619570
         H           -1.942918000000     1.715495000000    -0.206976000000     1.007825032230
         H           -0.939941000000     1.583322000000    -1.344780000000     1.007825032230
         O           -0.874120000000    -1.338989000000    -0.808144000000    15.994914619570
         H           -1.695116000000    -1.751423000000    -0.533523000000     1.007825032230
         H           -0.327135000000    -2.063220000000    -1.130349000000     1.007825032230
         O            0.608715000000     0.248553000000     1.781960000000    15.994914619570
         H            1.153588000000     0.893218000000     2.259355000000     1.007825032230
         H           -0.175350000000     0.061724000000     2.297094000000     1.007825032230
         O            1.616898000000    -0.021797000000    -1.057657000000    15.994914619570
         H            1.564752000000    -0.251149000000    -1.971527000000     1.007825032230
         H            2.506419000000    -0.320433000000    -0.827794000000     1.007825032230

  Charge       = 0
  Multiplicity = 1
  Basis Set: AUG-CC-PVTZ
    Blend: AUG-CC-PVTZ
  Basis Set: (AUG-CC-PVTZ AUX)
    Blend: AUG-CC-PVTZ-JKFIT + DEF2-UNIVERSAL-JKFIT

    Orbital Energies [Eh]
    ---------------------

    Doubly Occupied:

       1A    -20.542742     2A    -20.536265     3A    -20.527574
       4A    -20.524892     5A     -1.329570     6A     -1.324397
       7A     -1.307265     8A     -1.303747     9A     -0.695081
      10A     -0.684174    11A     -0.681082    12A     -0.664262
      13A     -0.569176    14A     -0.551176    15A     -0.539891
      16A     -0.528335    17A     -0.486221    18A     -0.476639
      19A     -0.469588    20A     -0.459482

  @DF-RHF Final Energy:  -304.21623540336867

   => Energetics <=

    Nuclear Repulsion Energy =            134.9698839915059523
    One-Electron Energy =                -689.9691139428687165
    Two-Electron Energy =                 250.7829945479940648
    Total Energy =                       -304.2162354033686711
 Dipole X            :         -6.2418733            5.8964501           -0.3454233
 Dipole Y            :         -8.8531552            8.0566395           -0.7965157
 Dipole Z            :          9.5105068           -9.8140356           -0.3035288
 Magnitude           :                                                    0.9197197

    SAPT Results
  --------------------------------------------------------------------------------------------------------
    Electrostatics               -146.68925130 [mEh]     -92.04889489 [kcal/mol]    -385.13257623 [kJ/mol]
      Elst10,r                   -159.00381718 [mEh]     -99.77640164 [kcal/mol]    -417.46446448 [kJ/mol]
      Elst12,r                     12.31456588 [mEh]       7.72750675 [kcal/mol]      32.33188825 [kJ/mol]

    Exchange                       54.06818385 [mEh]      33.92829760 [kcal/mol]     141.95599715 [kJ/mol]
      Exch10                       50.74241569 [mEh]      31.84134657 [kcal/mol]     133.22419403 [kJ/mol]
      Exch10(S^2)                  50.05677039 [mEh]      31.41109765 [kcal/mol]     131.42403256 [kJ/mol]
      Exch11(S^2)                  -0.80905819 [mEh]      -0.50769168 [kcal/mol]      -2.12418199 [kJ/mol]
      Exch12(S^2)                   4.13482636 [mEh]       2.59464271 [kcal/mol]      10.85598512 [kJ/mol]

    Induction                     -69.87630074 [mEh]     -43.84804071 [kcal/mol]    -183.46020231 [kJ/mol]
      Ind20,r                     -88.91546369 [mEh]     -55.79529583 [kcal/mol]    -233.44751777 [kJ/mol]
      Ind22                        -9.90409350 [mEh]      -6.21491250 [kcal/mol]     -26.00319391 [kJ/mol]
      Exch-Ind20,r                 30.18434798 [mEh]      18.94096432 [kcal/mol]      79.24899472 [kJ/mol]
      Exch-Ind22                    3.36216663 [mEh]       2.10979141 [kcal/mol]       8.82736727 [kJ/mol]
      delta HF,r (2)               -4.60325815 [mEh]      -2.88858810 [kcal/mol]     -12.08585262 [kJ/mol]

    Dispersion                     -3.56070441 [mEh]      -2.23437575 [kcal/mol]      -9.34862813 [kJ/mol]
      Disp20                       -3.56314212 [mEh]      -2.23590544 [kcal/mol]      -9.35502835 [kJ/mol]
      Disp21                       -0.12150608 [mEh]      -0.07624622 [kcal/mol]      -0.31901416 [kJ/mol]
      Disp22 (SDQ)                 -0.05195746 [mEh]      -0.03260380 [kcal/mol]      -0.13641428 [kJ/mol]
      Disp22 (T)                   -0.21184478 [mEh]      -0.13293460 [kcal/mol]      -0.55619838 [kJ/mol]
      Est. Disp22 (T)              -0.23574140 [mEh]      -0.14792996 [kcal/mol]      -0.61893897 [kJ/mol]
      Exch-Disp20                   0.41164265 [mEh]       0.25830966 [kcal/mol]       1.08076764 [kJ/mol]

  Total HF                       -171.59577535 [mEh]    -107.67797469 [kcal/mol]    -450.52464612 [kJ/mol]
  Total SAPT0                    -174.74727482 [mEh]    -109.65557047 [kcal/mol]    -458.79890683 [kJ/mol]
  Total SAPT2                    -165.64886765 [mEh]    -103.94623377 [kcal/mol]    -434.91104210 [kJ/mol]
  Total SAPT2+                   -166.05807259 [mEh]    -104.20301375 [kcal/mol]    -435.98540951 [kJ/mol]

  Special recipe for scaled SAPT0 (see Manual):
    Electrostatics sSAPT0        -159.00381718 [mEh]     -99.77640164 [kcal/mol]    -417.46446448 [kJ/mol]
    Exchange sSAPT0                50.74241569 [mEh]      31.84134657 [kcal/mol]     133.22419403 [kJ/mol]
    Induction sSAPT0              -62.07696988 [mEh]     -38.95388670 [kcal/mol]    -162.98306197 [kJ/mol]
    Dispersion sSAPT0              -3.13435147 [mEh]      -1.96683524 [kcal/mol]      -8.22923865 [kJ/mol]
  Total sSAPT0                   -173.47272284 [mEh]    -108.85577702 [kcal/mol]    -455.45257107 [kJ/mol]
  --------------------------------------------------------------------------------------------------------

*** Psi4 exiting successfully. Buy a developer a beer!
