                               Psi4 1.9 release

  ==> Input File <==

--------------------------------------------------------------------------
MEMORY 60 GB

molecule dimer {
1 1
Li     0.000000     0.000000     0.000000
--
0 1
O     -0.877901    -0.669804    -1.764505
H     -0.604585    -0.141250    -2.476090
H     -0.318802    -1.470888    -1.866124
O     -0.675625    -0.903094     1.504513
H     -1.561938    -0.688831     1.846484
H     -0.636237    -1.802238     1.249660
O     -0.291915     1.880346     0.276855
H     -0.395520     2.489150    -0.423060
H     -0.773999     2.031365     1.070741
O      1.738779    -0.892995    -0.171427
H      1.936336    -1.888660    -0.006936
H      2.351816    -0.434925     0.435878

units ang
no_reorient
no_com
symmetry c1
}

set {
basis        aug-cc-pVTZ
scf_type     df
}

energy("sapt2+")
--------------------------------------------------------------------------

  //              Dimer HF             //
    Molecular point group: c1
  Charge       = 1
  Multiplicity = 1
  Basis Set: AUG-CC-PVTZ
    Blend: AUG-CC-PVTZ
  Basis Set: (AUG-CC-PVTZ AUX)
    Blend: AUG-CC-PVTZ-JKFIT + DEF2-UNIVERSAL-JKFIT
  @DF-RHF Final Energy:  -311.61378119171235
    Total Energy =                       -311.6137811917123486
 Dipole X            :          1.7283961           -1.6180308            0.1103654
 Dipole Y            :         11.9520500          -12.4545292           -0.5024792
 Dipole Z            :          2.7921176           -2.6568775            0.1352401
 Magnitude           :                                                    0.5319358
  //            Monomer A HF           //
    Molecular point group: c1
  Multiplicity = 1
  Basis Set: AUG-CC-PVTZ
    Blend: AUG-CC-PVTZ
  Basis Set: (AUG-CC-PVTZ AUX)
    Blend: AUG-CC-PVTZ-JKFIT + DEF2-UNIVERSAL-JKFIT
  @DF-RHF Final Energy:    -7.23638488639442
    Total Energy =                         -7.2363848863944202
  //            Monomer B HF           //
    Molecular point group: c1

    Geometry (in Angstrom), charge = 0, multiplicity = 1:

       Center              X                  Y                   Z               Mass
    ------------   -----------------  -----------------  -----------------  -----------------
      Gh(LI)          0.000000000000     0.000000000000     0.000000000000     7.016003436600
         O           -0.877901000000    -0.669804000000    -1.764505000000    15.994914619570
         H           -0.604585000000    -0.141250000000    -2.476090000000     1.007825032230
         H           -0.318802000000    -1.470888000000    -1.866124000000     1.007825032230
         O           -0.675625000000    -0.903094000000     1.504513000000    15.994914619570
         H           -1.561938000000    -0.688831000000     1.846484000000     1.007825032230
         H           -0.636237000000    -1.802238000000     1.249660000000     1.007825032230
         O           -0.291915000000     1.880346000000     0.276855000000    15.994914619570
         H           -0.395520000000     2.489150000000    -0.423060000000     1.007825032230
         H           -0.773999000000     2.031365000000     1.070741000000     1.007825032230
         O            1.738779000000    -0.892995000000    -0.171427000000    15.994914619570
         H            1.936336000000    -1.888660000000    -0.006936000000     1.007825032230
         H            2.351816000000    -0.434925000000     0.435878000000     1.007825032230

  Charge       = 0
  Multiplicity = 1
  Basis Set: AUG-CC-PVTZ
    Blend: AUG-CC-PVTZ
  Basis Set: (AUG-CC-PVTZ AUX)
    Blend: AUG-CC-PVTZ-JKFIT + DEF2-UNIVERSAL-JKFIT

    Orbital Energies [Eh]
    ---------------------

    Doubly Occupied:

       1A    -20.552928     2A    -20.533935     3A    -20.532392
       4A    -20.527047     5A     -1.325837     6A     -1.323084
       7A     -1.321641     8A     -1.310785     9A     -0.725115
      10A     -0.702297    11A     -0.683525    12A     -0.670715
      13A     -0.559554    14A     -0.555634    15A     -0.545876
      16A     -0.527453    17A     -0.486909    18A     -0.481358
      19A     -0.472436    20A     -0.470764

  @DF-RHF Final Energy:  -304.21148729380587

   => Energetics <=

    Nuclear Repulsion Energy =            132.5574821841180722
    One-Electron Energy =                -684.9193688597702021
    Two-Electron Energy =                 248.1503993818462845
    Total Energy =                       -304.2114872938058738
 Dipole X            :          1.7428036           -1.6180308            0.1247728
 Dipole Y            :         12.0943999          -12.4545292           -0.3601292
 Dipole Z            :          2.7537022           -2.6568775            0.0968247
 Magnitude           :                                                    0.3932383

    SAPT Results
  --------------------------------------------------------------------------------------------------------
    Electrostatics               -139.79504396 [mEh]     -87.72271447 [kcal/mol]    -367.03183735 [kJ/mol]
      Elst10,r                   -149.78522280 [mEh]     -93.99164634 [kcal/mol]    -393.26104827 [kJ/mol]
      Elst12,r                      9.99017884 [mEh]       6.26893186 [kcal/mol]      26.22921092 [kJ/mol]

    Exchange                       45.81571266 [mEh]      28.74979374 [kcal/mol]     120.28913702 [kJ/mol]
      Exch10                       42.37173171 [mEh]      26.58866307 [kcal/mol]     111.24696629 [kJ/mol]
      Exch10(S^2)                  41.89285919 [mEh]      26.28816603 [kcal/mol]     109.98968666 [kJ/mol]
      Exch11(S^2)                  -0.65123220 [mEh]      -0.40865437 [kcal/mol]      -1.70980989 [kJ/mol]
      Exch12(S^2)                   4.09521314 [mEh]       2.56978504 [kcal/mol]      10.75198062 [kJ/mol]

    Induction                     -64.79074230 [mEh]     -40.65680461 [kcal/mol]    -170.10807047 [kJ/mol]
      Ind20,r                     -81.40366671 [mEh]     -51.08157206 [kcal/mol]    -213.72529751 [kJ/mol]
      Ind22                        -9.41050402 [mEh]      -5.90518043 [kcal/mol]     -24.70727490 [kJ/mol]
      Exch-Ind20,r                 26.94811983 [mEh]      16.91020049 [kcal/mol]      70.75227886 [kJ/mol]
      Exch-Ind22                    3.11528215 [mEh]       1.95486906 [kcal/mol]       8.17917216 [kJ/mol]
      delta HF,r (2)               -4.03997355 [mEh]      -2.53512168 [kcal/mol]     -10.60694909 [kJ/mol]

    Dispersion                     -3.05518980 [mEh]      -1.91716054 [kcal/mol]      -8.02139972 [kJ/mol]
      Disp20                       -3.01345266 [mEh]      -1.89097009 [kcal/mol]      -7.91181886 [kJ/mol]
      Disp21                       -0.12843480 [mEh]      -0.08059405 [kcal/mol]      -0.33720552 [kJ/mol]
      Disp22 (SDQ)                 -0.05366507 [mEh]      -0.03367534 [kcal/mol]      -0.14089763 [kJ/mol]
      Disp22 (T)                   -0.17937469 [mEh]      -0.11255932 [kcal/mol]      -0.47094819 [kJ/mol]
      Est. Disp22 (T)              -0.20459315 [mEh]      -0.12838414 [kcal/mol]      -0.53715925 [kJ/mol]
      Exch-Disp20                   0.34495588 [mEh]       0.21646309 [kcal/mol]       0.90568155 [kJ/mol]

  Total HF                       -165.90901151 [mEh]    -104.10947651 [kcal/mol]    -435.59404971 [kJ/mol]
  Total SAPT0                    -168.57750828 [mEh]    -105.78398351 [kcal/mol]    -442.60018702 [kJ/mol]
  Total SAPT2                    -161.43857037 [mEh]    -101.30423234 [kcal/mol]    -423.85690812 [kJ/mol]
  Total SAPT2+                   -161.82526340 [mEh]    -101.54688588 [kcal/mol]    -424.87217053 [kJ/mol]

  Special recipe for scaled SAPT0 (see Manual):
    Electrostatics sSAPT0        -149.78522280 [mEh]     -93.99164634 [kcal/mol]    -393.26104827 [kJ/mol]
    Exchange sSAPT0                42.37173171 [mEh]      26.58866307 [kcal/mol]     111.24696629 [kJ/mol]
    Induction sSAPT0              -57.56079394 [mEh]     -36.11994351 [kcal/mol]    -151.12584366 [kJ/mol]
    Dispersion sSAPT0              -2.65653158 [mEh]      -1.66699873 [kcal/mol]      -6.97472271 [kJ/mol]
  Total sSAPT0                   -167.63081660 [mEh]    -105.18992551 [kcal/mol]    -440.11464835 [kJ/mol]
  --------------------------------------------------------------------------------------------------------

*** Psi4 exiting successfully. Buy a developer a beer!
