                               Psi4 1.9 release

  ==> Input File <==

--------------------------------------------------------------------------
MEMORY 60 GB

molecule dimer {
1 1
Li     0.000000     0.000000     0.000000
--
0 1
O     -1.513363     0.722143    -0.727441
H     -2.027594     0.178981    -1.343150
H     -1.819754     1.661892    -0.823652
O     -0.252767    -2.026350    -0.783049
H      0.479598    -2.628908    -0.595592
H     -1.049144    -2.293358    -0.295986
O      0.516511     0.763586     1.671608
H      0.437421     1.575636     1.228955
H     -0.235072     0.629634     2.234292
O      1.457213     0.460443    -1.122910
H      1.677956    -0.213540    -1.788812
H      2.254305     0.527812    -0.514055

units ang
no_reorient
no_com
symmetry c1
}

set {
basis        aug-cc-pVTZ
scf_type     df
}

energy("sapt2+")
--------------------------------------------------------------------------

  //              Dimer HF             //
    Molecular point group: c1
  Charge       = 1
  Multiplicity = 1
  Basis Set: AUG-CC-PVTZ
    Blend: AUG-CC-PVTZ
  Basis Set: (AUG-CC-PVTZ AUX)
    Blend: AUG-CC-PVTZ-JKFIT + DEF2-UNIVERSAL-JKFIT
  @DF-RHF Final Energy:  -311.60902934759417
    Total Energy =                       -311.6090293475941735
 Dipole X            :         -3.1085761            2.6049270           -0.5036491
 Dipole Y            :          2.0302593           -2.2738602           -0.2436009
 Dipole Z            :         17.9693858          -18.1268879           -0.1575021
 Magnitude           :                                                    0.5812149
  //            Monomer A HF           //
    Molecular point group: c1
  Multiplicity = 1
  Basis Set: AUG-CC-PVTZ
    Blend: AUG-CC-PVTZ
  Basis Set: (AUG-CC-PVTZ AUX)
    Blend: AUG-CC-PVTZ-JKFIT + DEF2-UNIVERSAL-JKFIT
  @DF-RHF Final Energy:    -7.23638492643697
    Total Energy =                         -7.2363849264369735
  //            Monomer B HF           //
    Molecular point group: c1

    Geometry (in Angstrom), charge = 0, multiplicity = 1:

       Center              X                  Y                   Z               Mass
    ------------   -----------------  -----------------  -----------------  -----------------
      Gh(LI)          0.000000000000     0.000000000000     0.000000000000     7.016003436600
         O           -1.513363000000     0.722143000000    -0.727441000000    15.994914619570
         H           -2.027594000000     0.178981000000    -1.343150000000     1.007825032230
         H           -1.819754000000     1.661892000000    -0.823652000000     1.007825032230
         O           -0.252767000000    -2.026350000000    -0.783049000000    15.994914619570
         H            0.479598000000    -2.628908000000    -0.595592000000     1.007825032230
         H           -1.049144000000    -2.293358000000    -0.295986000000     1.007825032230
         O            0.516511000000     0.763586000000     1.671608000000    15.994914619570
         H            0.437421000000     1.575636000000     1.228955000000     1.007825032230
         H           -0.235072000000     0.629634000000     2.234292000000     1.007825032230
         O            1.457213000000     0.460443000000    -1.122910000000    15.994914619570
         H            1.677956000000    -0.213540000000    -1.788812000000     1.007825032230
         H            2.254305000000     0.527812000000    -0.514055000000     1.007825032230

  Charge       = 0
  Multiplicity = 1
  Basis Set: AUG-CC-PVTZ
    Blend: AUG-CC-PVTZ
  Basis Set: (AUG-CC-PVTZ AUX)
    Blend: AUG-CC-PVTZ-JKFIT + DEF2-UNIVERSAL-JKFIT

    Orbital Energies [Eh]
    ---------------------

    Doubly Occupied:

       1A    -20.547424     2A    -20.544603     3A    -20.532976
       4A    -20.528972     5A     -1.328792     6A     -1.325971
       7A     -1.315129     8A     -1.299188     9A     -0.709185
      10A     -0.706943    11A     -0.686501    12A     -0.666686
      13A     -0.559850    14A     -0.550258    15A     -0.546157
      16A     -0.533924    17A     -0.491155    18A     -0.481142
      19A     -0.477430    20A     -0.462556

  @DF-RHF Final Energy:  -304.21807302284731

   => Energetics <=

    Nuclear Repulsion Energy =            133.6646052637593982
    One-Electron Energy =                -687.1756675597425783
    Two-Electron Energy =                 249.2929892731358450
    Total Energy =                       -304.2180730228473067
 Dipole X            :         -3.1160009            2.6049270           -0.5110739
 Dipole Y            :          1.9721075           -2.2738602           -0.3017527
 Dipole Z            :         18.1280465          -18.1268879            0.0011586
 Magnitude           :                                                    0.5935087

    SAPT Results
  --------------------------------------------------------------------------------------------------------
    Electrostatics               -133.32548946 [mEh]     -83.66300773 [kcal/mol]    -350.04602435 [kJ/mol]
      Elst10,r                   -142.58255700 [mEh]     -89.47190531 [kcal/mol]    -374.35045184 [kJ/mol]
      Elst12,r                      9.25706754 [mEh]       5.80889758 [kcal/mol]      24.30442749 [kJ/mol]

    Exchange                       52.28894711 [mEh]      32.81180968 [kcal/mol]     137.28461172 [kJ/mol]
      Exch10                       48.44964677 [mEh]      30.40261235 [kcal/mol]     127.20453007 [kJ/mol]
      Exch10(S^2)                  47.82719666 [mEh]      30.01201901 [kcal/mol]     125.57028754 [kJ/mol]
      Exch11(S^2)                  -0.76422843 [mEh]      -0.47956058 [kcal/mol]      -2.00648147 [kJ/mol]
      Exch12(S^2)                   4.60352877 [mEh]       2.88875792 [kcal/mol]      12.08656312 [kJ/mol]

    Induction                     -66.97849192 [mEh]     -42.02963822 [kcal/mol]    -175.85200631 [kJ/mol]
      Ind20,r                     -86.03314477 [mEh]     -53.98661340 [kcal/mol]    -225.87999047 [kJ/mol]
      Ind22                       -10.10269086 [mEh]      -6.33953423 [kcal/mol]     -26.52461121 [kJ/mol]
      Exch-Ind20,r                 30.33935930 [mEh]      19.03823539 [kcal/mol]      79.65597686 [kJ/mol]
      Exch-Ind22                    3.56268702 [mEh]       2.23561986 [kcal/mol]       9.35383348 [kJ/mol]
      delta HF,r (2)               -4.74470260 [mEh]      -2.97734583 [kcal/mol]     -12.45721497 [kJ/mol]

    Dispersion                     -3.32675091 [mEh]      -2.08756771 [kcal/mol]      -8.73438330 [kJ/mol]
      Disp20                       -3.29879867 [mEh]      -2.07002742 [kcal/mol]      -8.66099473 [kJ/mol]
      Disp21                       -0.12922558 [mEh]      -0.08109028 [kcal/mol]      -0.33928172 [kJ/mol]
      Disp22 (SDQ)                 -0.06111050 [mEh]      -0.03834742 [kcal/mol]      -0.16044559 [kJ/mol]
      Disp22 (T)                   -0.19553948 [mEh]      -0.12270288 [kcal/mol]      -0.51338884 [kJ/mol]
      Est. Disp22 (T)              -0.22298670 [mEh]      -0.13992627 [kcal/mol]      -0.58545150 [kJ/mol]
      Exch-Disp20                   0.38537055 [mEh]       0.24182367 [kcal/mol]       1.01179023 [kJ/mol]

  Total HF                       -154.57139831 [mEh]     -96.99501681 [kcal/mol]    -405.82715035 [kJ/mol]
  Total SAPT0                    -157.48482644 [mEh]     -98.82322057 [kcal/mol]    -413.47635485 [kJ/mol]
  Total SAPT2                    -150.92846240 [mEh]     -94.70904002 [kcal/mol]    -396.26262344 [kJ/mol]
  Total SAPT2+                   -151.34178518 [mEh]     -94.96840398 [kcal/mol]    -397.34780224 [kJ/mol]

  Special recipe for scaled SAPT0 (see Manual):
    Electrostatics sSAPT0        -142.58255700 [mEh]     -89.47190531 [kcal/mol]    -374.35045184 [kJ/mol]
    Exchange sSAPT0                48.44964677 [mEh]      30.40261235 [kcal/mol]     127.20453007 [kJ/mol]
    Induction sSAPT0              -59.23844407 [mEh]     -37.17268487 [kcal/mol]    -155.53051348 [kJ/mol]
    Dispersion sSAPT0              -2.89818517 [mEh]      -1.81863865 [kcal/mol]      -7.60918411 [kJ/mol]
  Total sSAPT0                   -156.26953947 [mEh]     -98.06061648 [kcal/mol]    -410.28561936 [kJ/mol]
  --------------------------------------------------------------------------------------------------------

*** Psi4 exiting successfully. Buy a developer a beer!
