                               Psi4 1.9 release

  ==> Input File <==

--------------------------------------------------------------------------
MEMORY 60 GB

molecule dimer {
1 1
Li     0.000000     0.000000     0.000000
--
0 1
O     -1.250276    -0.767961    -1.527750
H     -0.774486    -1.486835    -1.895383
H     -2.179176    -0.820415    -1.767325
O     -1.166798    -0.535753     1.661617
H     -0.741108    -0.764670     2.507558
H     -1.879153    -1.203534     1.673004
O      0.410563     1.717860     0.405025
H      0.955455     1.673867     1.174611
H      1.000185     2.068463    -0.282656
O      1.643875    -1.072325    -0.704594
H      1.714216    -1.974251    -0.225525
H      2.114756    -1.224097    -1.564307

units ang
no_reorient
no_com
symmetry c1
}

set {
basis        aug-cc-pVTZ
scf_type     df
}

energy("sapt2+")
--------------------------------------------------------------------------

  //              Dimer HF             //
    Molecular point group: c1
  Charge       = 1
  Multiplicity = 1
  Basis Set: AUG-CC-PVTZ
    Blend: AUG-CC-PVTZ
  Basis Set: (AUG-CC-PVTZ AUX)
    Blend: AUG-CC-PVTZ-JKFIT + DEF2-UNIVERSAL-JKFIT
  @DF-RHF Final Energy:  -311.61498920643913
    Total Energy =                       -311.6149892064391338
 Dipole X            :          5.6915614           -5.0841173            0.6074441
 Dipole Y            :         15.3352013          -17.0016845           -1.6664833
 Dipole Z            :          3.1514431           -3.2231906           -0.0717474
 Magnitude           :                                                    1.7751909
  //            Monomer A HF           //
    Molecular point group: c1
  Multiplicity = 1
  Basis Set: AUG-CC-PVTZ
    Blend: AUG-CC-PVTZ
  Basis Set: (AUG-CC-PVTZ AUX)
    Blend: AUG-CC-PVTZ-JKFIT + DEF2-UNIVERSAL-JKFIT
  @DF-RHF Final Energy:    -7.23638475364360
    Total Energy =                         -7.2363847536436046
  //            Monomer B HF           //
    Molecular point group: c1

    Geometry (in Angstrom), charge = 0, multiplicity = 1:

       Center              X                  Y                   Z               Mass
    ------------   -----------------  -----------------  -----------------  -----------------
      Gh(LI)          0.000000000000     0.000000000000     0.000000000000     7.016003436600
         O           -1.250276000000    -0.767961000000    -1.527750000000    15.994914619570
         H           -0.774486000000    -1.486835000000    -1.895383000000     1.007825032230
         H           -2.179176000000    -0.820415000000    -1.767325000000     1.007825032230
         O           -1.166798000000    -0.535753000000     1.661617000000    15.994914619570
         H           -0.741108000000    -0.764670000000     2.507558000000     1.007825032230
         H           -1.879153000000    -1.203534000000     1.673004000000     1.007825032230
         O            0.410563000000     1.717860000000     0.405025000000    15.994914619570
         H            0.955455000000     1.673867000000     1.174611000000     1.007825032230
         H            1.000185000000     2.068463000000    -0.282656000000     1.007825032230
         O            1.643875000000    -1.072325000000    -0.704594000000    15.994914619570
         H            1.714216000000    -1.974251000000    -0.225525000000     1.007825032230
         H            2.114756000000    -1.224097000000    -1.564307000000     1.007825032230

  Charge       = 0
  Multiplicity = 1
  Basis Set: AUG-CC-PVTZ
    Blend: AUG-CC-PVTZ
  Basis Set: (AUG-CC-PVTZ AUX)
    Blend: AUG-CC-PVTZ-JKFIT + DEF2-UNIVERSAL-JKFIT

    Orbital Energies [Eh]
    ---------------------

    Doubly Occupied:

       1A    -20.563035     2A    -20.543417     3A    -20.530816
       4A    -20.520893     5A     -1.322618     6A     -1.319159
       7A     -1.316581     8A     -1.307592     9A     -0.702302
      10A     -0.677128    11A     -0.672471    12A     -0.666020
      13A     -0.566318    14A     -0.560612    15A     -0.538083
      16A     -0.533673    17A     -0.493385    18A     -0.483002
      19A     -0.473410    20A     -0.461830

  @DF-RHF Final Energy:  -304.21232580361226

   => Energetics <=

    Nuclear Repulsion Energy =            128.8201276025721427
    One-Electron Energy =                -677.5602125597076792
    Two-Electron Energy =                 244.5277591535232773
    Total Energy =                       -304.2123258036122593
 Dipole X            :          5.6771167           -5.0841173            0.5929994
 Dipole Y            :         15.4756406          -17.0016845           -1.5260439
 Dipole Z            :          3.1638567           -3.2231906           -0.0593339
 Magnitude           :                                                    1.6382854

    SAPT Results
  --------------------------------------------------------------------------------------------------------
    Electrostatics               -137.72230181 [mEh]     -86.42204914 [kcal/mol]    -361.58985360 [kJ/mol]
      Elst10,r                   -148.52147465 [mEh]     -93.19863240 [kcal/mol]    -389.94307797 [kJ/mol]
      Elst12,r                     10.79917284 [mEh]       6.77658326 [kcal/mol]      28.35322437 [kJ/mol]

    Exchange                       39.47080995 [mEh]      24.76830718 [kcal/mol]     103.63059725 [kJ/mol]
      Exch10                       36.53472918 [mEh]      22.92588868 [kcal/mol]      95.92191824 [kJ/mol]
      Exch10(S^2)                  36.18108925 [mEh]      22.70397628 [kcal/mol]      94.99343675 [kJ/mol]
      Exch11(S^2)                  -0.48725595 [mEh]      -0.30575773 [kcal/mol]      -1.27929032 [kJ/mol]
      Exch12(S^2)                   3.42333672 [mEh]       2.14817623 [kcal/mol]       8.98796933 [kJ/mol]

    Induction                     -59.96354330 [mEh]     -37.62769150 [kcal/mol]    -157.43426125 [kJ/mol]
      Ind20,r                     -74.60931390 [mEh]     -46.81805131 [kcal/mol]    -195.88672667 [kJ/mol]
      Ind22                        -8.36537871 [mEh]      -5.24935439 [kcal/mol]     -21.96329877 [kJ/mol]
      Exch-Ind20,r                 24.02497659 [mEh]      15.07590042 [kcal/mol]      63.07756734 [kJ/mol]
      Exch-Ind22                    2.69373912 [mEh]       1.69034682 [kcal/mol]       7.07241109 [kJ/mol]
      delta HF,r (2)               -3.70756640 [mEh]      -2.32653304 [kcal/mol]      -9.73421424 [kJ/mol]

    Dispersion                     -2.60172821 [mEh]      -1.63260910 [kcal/mol]      -6.83083647 [kJ/mol]
      Disp20                       -2.55969527 [mEh]      -1.60623303 [kcal/mol]      -6.72047901 [kJ/mol]
      Disp21                       -0.10756573 [mEh]      -0.06749851 [kcal/mol]      -0.28241378 [kJ/mol]
      Disp22 (SDQ)                 -0.04591876 [mEh]      -0.02881446 [kcal/mol]      -0.12055969 [kJ/mol]
      Disp22 (T)                   -0.14795473 [mEh]      -0.09284299 [kcal/mol]      -0.38845509 [kJ/mol]
      Est. Disp22 (T)              -0.17274840 [mEh]      -0.10840126 [kcal/mol]      -0.45355086 [kJ/mol]
      Exch-Disp20                   0.28419995 [mEh]       0.17833816 [kcal/mol]       0.74616686 [kJ/mol]

  Total HF                       -166.27864918 [mEh]    -104.34142765 [kcal/mol]    -436.56453329 [kJ/mol]
  Total SAPT0                    -168.55414450 [mEh]    -105.76932252 [kcal/mol]    -442.53884543 [kJ/mol]
  Total SAPT2                    -160.49053048 [mEh]    -100.70932833 [kcal/mol]    -421.36782973 [kJ/mol]
  Total SAPT2+                   -160.81676337 [mEh]    -100.91404256 [kcal/mol]    -422.22435406 [kJ/mol]

  Special recipe for scaled SAPT0 (see Manual):
    Electrostatics sSAPT0        -148.52147465 [mEh]     -93.19863240 [kcal/mol]    -389.94307797 [kJ/mol]
    Exchange sSAPT0                36.53472918 [mEh]      22.92588868 [kcal/mol]      95.92191824 [kJ/mol]
    Induction sSAPT0              -53.58052342 [mEh]     -33.62228605 [kcal/mol]    -140.67564485 [kJ/mol]
    Dispersion sSAPT0              -2.26708015 [mEh]      -1.42261427 [kcal/mol]      -5.95221812 [kJ/mol]
  Total sSAPT0                   -167.83434904 [mEh]    -105.31764405 [kcal/mol]    -440.64902269 [kJ/mol]
  --------------------------------------------------------------------------------------------------------

*** Psi4 exiting successfully. Buy a developer a beer!
