                               Psi4 1.9 release

  ==> Input File <==

--------------------------------------------------------------------------
MEMORY 60 GB

molecule dimer {
1 1
Li     0.000000     0.000000     0.000000
--
0 1
O      0.181903     1.777450    -0.729930
H      0.593085     1.934525    -1.596672
H      0.280321     2.525539    -0.178489
O     -1.196907    -1.054425    -1.199409
H     -2.179947    -1.140973    -1.113703
H     -0.981597    -0.750434    -2.076686
O      1.630893    -0.829171     0.343299
H      1.796402    -1.357139     1.140948
H      2.284558    -1.180292    -0.243308

units ang
no_reorient
no_com
symmetry c1
}

set {
basis        aug-cc-pVTZ
scf_type     df
}

energy("sapt2+")
--------------------------------------------------------------------------

  //              Dimer HF             //
    Molecular point group: c1
  Charge       = 1
  Multiplicity = 1
  Basis Set: AUG-CC-PVTZ
    Blend: AUG-CC-PVTZ
  Basis Set: (AUG-CC-PVTZ AUX)
    Blend: AUG-CC-PVTZ-JKFIT + DEF2-UNIVERSAL-JKFIT
  @DF-RHF Final Energy:  -235.54504643982526
    Total Energy =                       -235.5450464398252564
 Dipole X            :        -12.1803453           12.6988348            0.5184896
 Dipole Y            :          1.7178495           -1.5456864            0.1721631
 Dipole Z            :         30.8068755          -31.6646856           -0.8578101
 Magnitude           :                                                    1.0170102
  //            Monomer A HF           //
    Molecular point group: c1
  Multiplicity = 1
  Basis Set: AUG-CC-PVTZ
    Blend: AUG-CC-PVTZ
  Basis Set: (AUG-CC-PVTZ AUX)
    Blend: AUG-CC-PVTZ-JKFIT + DEF2-UNIVERSAL-JKFIT
  @DF-RHF Final Energy:    -7.23638443520470
    Total Energy =                         -7.2363844352047000
  //            Monomer B HF           //
    Molecular point group: c1

    Geometry (in Angstrom), charge = 0, multiplicity = 1:

       Center              X                  Y                   Z               Mass
    ------------   -----------------  -----------------  -----------------  -----------------
      Gh(LI)          0.000000000000     0.000000000000     0.000000000000     7.016003436600
         O            0.181903000000     1.777450000000    -0.729930000000    15.994914619570
         H            0.593085000000     1.934525000000    -1.596672000000     1.007825032230
         H            0.280321000000     2.525539000000    -0.178489000000     1.007825032230
         O           -1.196907000000    -1.054425000000    -1.199409000000    15.994914619570
         H           -2.179947000000    -1.140973000000    -1.113703000000     1.007825032230
         H           -0.981597000000    -0.750434000000    -2.076686000000     1.007825032230
         O            1.630893000000    -0.829171000000     0.343299000000    15.994914619570
         H            1.796402000000    -1.357139000000     1.140948000000     1.007825032230
         H            2.284558000000    -1.180292000000    -0.243308000000     1.007825032230

  Charge       = 0
  Multiplicity = 1
  Basis Set: AUG-CC-PVTZ
    Blend: AUG-CC-PVTZ
  Basis Set: (AUG-CC-PVTZ AUX)
    Blend: AUG-CC-PVTZ-JKFIT + DEF2-UNIVERSAL-JKFIT

    Orbital Energies [Eh]
    ---------------------

    Doubly Occupied:

       1A    -20.541797     2A    -20.540844     3A    -20.539024
       4A     -1.330252     5A     -1.328644     6A     -1.315070
       7A     -0.710342     8A     -0.691296     9A     -0.683993
      10A     -0.567382    11A     -0.547647    12A     -0.541924
      13A     -0.487085    14A     -0.481529    15A     -0.477312

  @DF-RHF Final Energy:  -228.16546317773330

   => Energetics <=

    Nuclear Repulsion Energy =             74.6547868381563546
    One-Electron Energy =                -464.0722135397562056
    Two-Electron Energy =                 161.2519635238665785
    Total Energy =                       -228.1654631777333009
 Dipole X            :        -12.3399046           12.6988348            0.3589302
 Dipole Y            :          1.7391944           -1.5456864            0.1935080
 Dipole Z            :         31.1280723          -31.6646856           -0.5366133
 Magnitude           :                                                    0.6739659

    SAPT Results
  --------------------------------------------------------------------------------------------------------
    Electrostatics               -121.53291588 [mEh]     -76.26305609 [kcal/mol]    -319.08462668 [kJ/mol]
      Elst10,r                   -131.05968959 [mEh]     -82.24119685 [kcal/mol]    -344.09716762 [kJ/mol]
      Elst12,r                      9.52677372 [mEh]       5.97814076 [kcal/mol]      25.01254095 [kJ/mol]

    Exchange                       38.15434054 [mEh]      23.94221016 [kcal/mol]     100.17420730 [kJ/mol]
      Exch10                       35.62967393 [mEh]      22.35795794 [kcal/mol]      93.54569601 [kJ/mol]
      Exch10(S^2)                  35.29147672 [mEh]      22.14573599 [kcal/mol]      92.65775936 [kJ/mol]
      Exch11(S^2)                  -0.38702247 [mEh]      -0.24286027 [kcal/mol]      -1.01612736 [kJ/mol]
      Exch12(S^2)                   2.91168909 [mEh]       1.82711249 [kcal/mol]       7.64463864 [kJ/mol]

    Induction                     -52.37453896 [mEh]     -32.86551938 [kcal/mol]    -137.50933309 [kJ/mol]
      Ind20,r                     -68.23378584 [mEh]     -42.81734704 [kcal/mol]    -179.14778003 [kJ/mol]
      Ind22                        -6.99924093 [mEh]      -4.39208999 [kcal/mol]     -18.37650454 [kJ/mol]
      Exch-Ind20,r                 23.33373983 [mEh]      14.64214280 [kcal/mol]      61.26272548 [kJ/mol]
      Exch-Ind22                    2.39351320 [mEh]       1.50195221 [kcal/mol]       6.28416803 [kJ/mol]
      delta HF,r (2)               -2.86876521 [mEh]      -1.80017735 [kcal/mol]      -7.53194203 [kJ/mol]

    Dispersion                     -2.34695497 [mEh]      -1.47273648 [kcal/mol]      -6.16192942 [kJ/mol]
      Disp20                       -2.31971154 [mEh]      -1.45564097 [kcal/mol]      -6.09040180 [kJ/mol]
      Disp21                       -0.10529761 [mEh]      -0.06607525 [kcal/mol]      -0.27645885 [kJ/mol]
      Disp22 (SDQ)                 -0.03520695 [mEh]      -0.02209269 [kcal/mol]      -0.09243583 [kJ/mol]
      Disp22 (T)                   -0.12914060 [mEh]      -0.08103695 [kcal/mol]      -0.33905861 [kJ/mol]
      Est. Disp22 (T)              -0.15253020 [mEh]      -0.09571414 [kcal/mol]      -0.40046798 [kJ/mol]
      Exch-Disp20                   0.26579133 [mEh]       0.16678658 [kcal/mol]       0.69783504 [kJ/mol]

  Total HF                       -143.19882689 [mEh]     -89.85862051 [kcal/mol]    -375.96846820 [kJ/mol]
  Total SAPT0                    -145.25274709 [mEh]     -91.14747489 [kcal/mol]    -381.36103496 [kJ/mol]
  Total SAPT2                    -137.80703450 [mEh]     -86.47521970 [kcal/mol]    -361.81231922 [kJ/mol]
  Total SAPT2+                   -138.10006926 [mEh]     -86.65910179 [kcal/mol]    -362.58168188 [kJ/mol]

  Special recipe for scaled SAPT0 (see Manual):
    Electrostatics sSAPT0        -131.05968959 [mEh]     -82.24119685 [kcal/mol]    -344.09716762 [kJ/mol]
    Exchange sSAPT0                35.62967393 [mEh]      22.35795794 [kcal/mol]      93.54569601 [kJ/mol]
    Induction sSAPT0              -47.09154257 [mEh]     -29.55038909 [kcal/mol]    -123.63882797 [kJ/mol]
    Dispersion sSAPT0              -2.04620554 [mEh]      -1.28401336 [kcal/mol]      -5.37231189 [kJ/mol]
  Total sSAPT0                   -144.56776377 [mEh]     -90.71764137 [kcal/mol]    -379.56261148 [kJ/mol]
  --------------------------------------------------------------------------------------------------------

*** Psi4 exiting successfully. Buy a developer a beer!
