                               Psi4 1.9 release

  ==> Input File <==

--------------------------------------------------------------------------
MEMORY 60 GB

molecule dimer {
1 1
Li     0.000000     0.000000     0.000000
--
0 1
O      0.555055     1.756291    -0.173155
H      1.019401     2.013188    -0.983328
H      0.529311     2.536414     0.420306
O     -1.811688     0.111938    -0.737650
H     -2.603305     0.554410    -0.404862
H     -2.093361    -0.742220    -1.185759
O      0.926386    -1.366764    -1.203158
H      0.261493    -1.902613    -1.696554
H      1.278228    -0.703441    -1.798368
O     -0.610731    -0.311488     1.950183
H     -1.529573    -0.612056     1.947277
H     -0.415540     0.410401     2.511917

units ang
no_reorient
no_com
symmetry c1
}

set {
basis        aug-cc-pVTZ
scf_type     df
}

energy("sapt2+")
--------------------------------------------------------------------------

  //              Dimer HF             //
    Molecular point group: c1
  Charge       = 1
  Multiplicity = 1
  Basis Set: AUG-CC-PVTZ
    Blend: AUG-CC-PVTZ
  Basis Set: (AUG-CC-PVTZ AUX)
    Blend: AUG-CC-PVTZ-JKFIT + DEF2-UNIVERSAL-JKFIT
  @DF-RHF Final Energy:  -311.61209501087052
    Total Energy =                       -311.6120950108705188
 Dipole X            :         19.6537822          -20.9403764           -1.2865943
 Dipole Y            :         -4.8704487            5.8088272            0.9383785
 Dipole Z            :          4.1074558           -4.7235802           -0.6161244
 Magnitude           :                                                    1.7074801
  //            Monomer A HF           //
    Molecular point group: c1
  Multiplicity = 1
  Basis Set: AUG-CC-PVTZ
    Blend: AUG-CC-PVTZ
  Basis Set: (AUG-CC-PVTZ AUX)
    Blend: AUG-CC-PVTZ-JKFIT + DEF2-UNIVERSAL-JKFIT
  @DF-RHF Final Energy:    -7.23638484858176
    Total Energy =                         -7.2363848485817570
  //            Monomer B HF           //
    Molecular point group: c1

    Geometry (in Angstrom), charge = 0, multiplicity = 1:

       Center              X                  Y                   Z               Mass
    ------------   -----------------  -----------------  -----------------  -----------------
      Gh(LI)          0.000000000000     0.000000000000     0.000000000000     7.016003436600
         O            0.555055000000     1.756291000000    -0.173155000000    15.994914619570
         H            1.019401000000     2.013188000000    -0.983328000000     1.007825032230
         H            0.529311000000     2.536414000000     0.420306000000     1.007825032230
         O           -1.811688000000     0.111938000000    -0.737650000000    15.994914619570
         H           -2.603305000000     0.554410000000    -0.404862000000     1.007825032230
         H           -2.093361000000    -0.742220000000    -1.185759000000     1.007825032230
         O            0.926386000000    -1.366764000000    -1.203158000000    15.994914619570
         H            0.261493000000    -1.902613000000    -1.696554000000     1.007825032230
         H            1.278228000000    -0.703441000000    -1.798368000000     1.007825032230
         O           -0.610731000000    -0.311488000000     1.950183000000    15.994914619570
         H           -1.529573000000    -0.612056000000     1.947277000000     1.007825032230
         H           -0.415540000000     0.410401000000     2.511917000000     1.007825032230

  Charge       = 0
  Multiplicity = 1
  Basis Set: AUG-CC-PVTZ
    Blend: AUG-CC-PVTZ
  Basis Set: (AUG-CC-PVTZ AUX)
    Blend: AUG-CC-PVTZ-JKFIT + DEF2-UNIVERSAL-JKFIT

    Orbital Energies [Eh]
    ---------------------

    Doubly Occupied:

       1A    -20.547874     2A    -20.543087     3A    -20.538689
       4A    -20.524393     5A     -1.319633     6A     -1.315926
       7A     -1.314151     8A     -1.312480     9A     -0.708053
      10A     -0.693063    11A     -0.690632    12A     -0.684201
      13A     -0.561438    14A     -0.544537    15A     -0.534658
      16A     -0.524932    17A     -0.491778    18A     -0.480571
      19A     -0.476031    20A     -0.463178

  @DF-RHF Final Energy:  -304.20725593246635

   => Energetics <=

    Nuclear Repulsion Energy =            131.9147163279268682
    One-Electron Energy =                -683.7053317876024039
    Two-Electron Energy =                 247.5833595272092111
    Total Energy =                       -304.2072559324663530
 Dipole X            :         19.8928806          -20.9403764           -1.0474958
 Dipole Y            :         -4.9988575            5.8088272            0.8099697
 Dipole Z            :          4.1928477           -4.7235802           -0.5307325
 Magnitude           :                                                    1.4265257

    SAPT Results
  --------------------------------------------------------------------------------------------------------
    Electrostatics               -138.30724308 [mEh]     -86.78910532 [kcal/mol]    -363.12561668 [kJ/mol]
      Elst10,r                   -149.14024583 [mEh]     -93.58691718 [kcal/mol]    -391.56766147 [kJ/mol]
      Elst12,r                     10.83300275 [mEh]       6.79781185 [kcal/mol]      28.44204479 [kJ/mol]

    Exchange                       41.03165259 [mEh]      25.74775073 [kcal/mol]     107.72858904 [kJ/mol]
      Exch10                       37.99096341 [mEh]      23.83968946 [kcal/mol]      99.74526068 [kJ/mol]
      Exch10(S^2)                  37.60446295 [mEh]      23.59715676 [kcal/mol]      98.73050388 [kJ/mol]
      Exch11(S^2)                  -0.55845399 [mEh]      -0.35043517 [kcal/mol]      -1.46622074 [kJ/mol]
      Exch12(S^2)                   3.59914317 [mEh]       2.25849644 [kcal/mol]       9.44954910 [kJ/mol]

    Induction                     -63.49168985 [mEh]     -39.84163688 [kcal/mol]    -166.69740873 [kJ/mol]
      Ind20,r                     -77.83406156 [mEh]     -48.84161101 [kcal/mol]    -204.35330046 [kJ/mol]
      Ind22                        -8.97672280 [mEh]      -5.63297860 [kcal/mol]     -23.56838247 [kJ/mol]
      Exch-Ind20,r                 24.19095561 [mEh]      15.18005383 [kcal/mol]      63.51334521 [kJ/mol]
      Exch-Ind22                    2.78998036 [mEh]       1.75073911 [kcal/mol]       7.32509242 [kJ/mol]
      delta HF,r (2)               -3.66184146 [mEh]      -2.29784020 [kcal/mol]      -9.61416342 [kJ/mol]

    Dispersion                     -2.86687031 [mEh]      -1.79898828 [kcal/mol]      -7.52696696 [kJ/mol]
      Disp20                       -2.82601330 [mEh]      -1.77335012 [kcal/mol]      -7.41969689 [kJ/mol]
      Disp21                       -0.11166810 [mEh]      -0.07007279 [kcal/mol]      -0.29318456 [kJ/mol]
      Disp22 (SDQ)                 -0.04885848 [mEh]      -0.03065916 [kcal/mol]      -0.12827792 [kJ/mol]
      Disp22 (T)                   -0.15951997 [mEh]      -0.10010029 [kcal/mol]      -0.41881963 [kJ/mol]
      Est. Disp22 (T)              -0.18896494 [mEh]      -0.11857729 [kcal/mol]      -0.49612737 [kJ/mol]
      Exch-Disp20                   0.30863451 [mEh]       0.19367108 [kcal/mol]       0.81031979 [kJ/mol]

  Total HF                       -168.45422982 [mEh]    -105.70662511 [kcal/mol]    -442.27651947 [kJ/mol]
  Total SAPT0                    -170.97160861 [mEh]    -107.28630415 [kcal/mol]    -448.88589657 [kJ/mol]
  Total SAPT2                    -163.28465912 [mEh]    -102.46267052 [kcal/mol]    -428.70381347 [kJ/mol]
  Total SAPT2+                   -163.63415064 [mEh]    -102.68197976 [kcal/mol]    -429.62140332 [kJ/mol]

  Special recipe for scaled SAPT0 (see Manual):
    Electrostatics sSAPT0        -149.14024583 [mEh]     -93.58691718 [kcal/mol]    -391.56766147 [kJ/mol]
    Exchange sSAPT0                37.99096341 [mEh]      23.83968946 [kcal/mol]      99.74526068 [kJ/mol]
    Induction sSAPT0              -56.55134730 [mEh]     -35.48650619 [kcal/mol]    -148.47554188 [kJ/mol]
    Dispersion sSAPT0              -2.50776416 [mEh]      -1.57364577 [kcal/mol]      -6.58413390 [kJ/mol]
  Total sSAPT0                   -170.20839389 [mEh]    -106.80737968 [kcal/mol]    -446.88207658 [kJ/mol]
  --------------------------------------------------------------------------------------------------------

*** Psi4 exiting successfully. Buy a developer a beer!
