                               Psi4 1.9 release

  ==> Input File <==

--------------------------------------------------------------------------
MEMORY 60 GB

molecule dimer {
1 1
Li     0.000000     0.000000     0.000000
--
0 1
O      0.266584     0.944052    -1.709450
H      0.979641     0.533414    -2.222257
H      0.507280     1.865020    -1.611472
O      1.380118    -0.496219     0.894533
H      1.295780    -0.523941     1.838069
H      1.512954    -1.400379     0.559638
O     -1.093945     1.554286     0.618531
H     -1.031922     1.943137     1.492156
H     -1.412017     2.309903     0.160618
O     -1.327662    -1.629141    -0.158356
H     -2.193596    -1.227361    -0.264880
H     -1.324595    -2.080127     0.693064

units ang
no_reorient
no_com
symmetry c1
}

set {
basis        aug-cc-pVTZ
scf_type     df
}

energy("sapt2+")
--------------------------------------------------------------------------

  //              Dimer HF             //
    Molecular point group: c1
  Charge       = 1
  Multiplicity = 1
  Basis Set: AUG-CC-PVTZ
    Blend: AUG-CC-PVTZ
  Basis Set: (AUG-CC-PVTZ AUX)
    Blend: AUG-CC-PVTZ-JKFIT + DEF2-UNIVERSAL-JKFIT
  @DF-RHF Final Energy:  -311.61744478451612
    Total Energy =                       -311.6174447845161239
 Dipole X            :         14.7220353          -14.8640471           -0.1420118
 Dipole Y            :         -7.7994080            8.3213901            0.5219821
 Dipole Z            :          5.0536006           -4.1441694            0.9094312
 Magnitude           :                                                    1.0581578
  //            Monomer A HF           //
    Molecular point group: c1
  Multiplicity = 1
  Basis Set: AUG-CC-PVTZ
    Blend: AUG-CC-PVTZ
  Basis Set: (AUG-CC-PVTZ AUX)
    Blend: AUG-CC-PVTZ-JKFIT + DEF2-UNIVERSAL-JKFIT
  @DF-RHF Final Energy:    -7.23638488612492
    Total Energy =                         -7.2363848861249176
  //            Monomer B HF           //
    Molecular point group: c1

    Geometry (in Angstrom), charge = 0, multiplicity = 1:

       Center              X                  Y                   Z               Mass
    ------------   -----------------  -----------------  -----------------  -----------------
      Gh(LI)          0.000000000000     0.000000000000     0.000000000000     7.016003436600
         O            0.266584000000     0.944052000000    -1.709450000000    15.994914619570
         H            0.979641000000     0.533414000000    -2.222257000000     1.007825032230
         H            0.507280000000     1.865020000000    -1.611472000000     1.007825032230
         O            1.380118000000    -0.496219000000     0.894533000000    15.994914619570
         H            1.295780000000    -0.523941000000     1.838069000000     1.007825032230
         H            1.512954000000    -1.400379000000     0.559638000000     1.007825032230
         O           -1.093945000000     1.554286000000     0.618531000000    15.994914619570
         H           -1.031922000000     1.943137000000     1.492156000000     1.007825032230
         H           -1.412017000000     2.309903000000     0.160618000000     1.007825032230
         O           -1.327662000000    -1.629141000000    -0.158356000000    15.994914619570
         H           -2.193596000000    -1.227361000000    -0.264880000000     1.007825032230
         H           -1.324595000000    -2.080127000000     0.693064000000     1.007825032230

  Charge       = 0
  Multiplicity = 1
  Basis Set: AUG-CC-PVTZ
    Blend: AUG-CC-PVTZ
  Basis Set: (AUG-CC-PVTZ AUX)
    Blend: AUG-CC-PVTZ-JKFIT + DEF2-UNIVERSAL-JKFIT

    Orbital Energies [Eh]
    ---------------------

    Doubly Occupied:

       1A    -20.545133     2A    -20.535021     3A    -20.533903
       4A    -20.529029     5A     -1.341420     6A     -1.319970
       7A     -1.316377     8A     -1.311725     9A     -0.696228
      10A     -0.691525    11A     -0.688652    12A     -0.677042
      13A     -0.578242    14A     -0.548267    15A     -0.544364
      16A     -0.537107    17A     -0.491600    18A     -0.485367
      19A     -0.466915    20A     -0.466630

  @DF-RHF Final Energy:  -304.21957340626273

   => Energetics <=

    Nuclear Repulsion Energy =            133.3220224750594980
    One-Electron Energy =                -686.4741533445602499
    Two-Electron Energy =                 248.9325574632380267
    Total Energy =                       -304.2195734062627253
 Dipole X            :         14.7768226          -14.8640471           -0.0872246
 Dipole Y            :         -7.8821592            8.3213901            0.4392309
 Dipole Z            :          5.0167658           -4.1441694            0.8725964
 Magnitude           :                                                    0.9807937

    SAPT Results
  --------------------------------------------------------------------------------------------------------
    Electrostatics               -143.52152358 [mEh]     -90.06111574 [kcal/mol]    -376.81570824 [kJ/mol]
      Elst10,r                   -154.04036294 [mEh]     -96.66178709 [kcal/mol]    -404.43291718 [kJ/mol]
      Elst12,r                     10.51883936 [mEh]       6.60067135 [kcal/mol]      27.61720894 [kJ/mol]

    Exchange                       56.75156996 [mEh]      35.61214780 [kcal/mol]     149.00122639 [kJ/mol]
      Exch10                       53.15376017 [mEh]      33.35448807 [kcal/mol]     139.55517810 [kJ/mol]
      Exch10(S^2)                  52.41174288 [mEh]      32.88886520 [kcal/mol]     137.60701198 [kJ/mol]
      Exch11(S^2)                  -0.77791269 [mEh]      -0.48814759 [kcal/mol]      -2.04240950 [kJ/mol]
      Exch12(S^2)                   4.37572248 [mEh]       2.74580731 [kcal/mol]      11.48845779 [kJ/mol]

    Induction                     -66.81868941 [mEh]     -41.92936063 [kcal/mol]    -175.43244487 [kJ/mol]
      Ind20,r                     -87.71192593 [mEh]     -55.04006449 [kcal/mol]    -230.28762981 [kJ/mol]
      Ind22                        -9.83716910 [mEh]      -6.17291680 [kcal/mol]     -25.82748391 [kJ/mol]
      Exch-Ind20,r                 32.26274906 [mEh]      20.24518069 [kcal/mol]      84.70583599 [kJ/mol]
      Exch-Ind22                    3.61836905 [mEh]       2.27056086 [kcal/mol]       9.50002663 [kJ/mol]
      delta HF,r (2)               -5.15071249 [mEh]      -3.23212088 [kcal/mol]     -13.52319377 [kJ/mol]

    Dispersion                     -3.42206617 [mEh]      -2.14737894 [kcal/mol]      -8.98463350 [kJ/mol]
      Disp20                       -3.41341199 [mEh]      -2.14194836 [kcal/mol]      -8.96191194 [kJ/mol]
      Disp21                       -0.13345489 [mEh]      -0.08374421 [kcal/mol]      -0.35038576 [kJ/mol]
      Disp22 (SDQ)                 -0.05557836 [mEh]      -0.03487595 [kcal/mol]      -0.14592096 [kJ/mol]
      Disp22 (T)                   -0.18893757 [mEh]      -0.11856011 [kcal/mol]      -0.49605552 [kJ/mol]
      Est. Disp22 (T)              -0.22249293 [mEh]      -0.13961642 [kcal/mol]      -0.58415512 [kJ/mol]
      Exch-Disp20                   0.40287200 [mEh]       0.25280599 [kcal/mol]       1.05774028 [kJ/mol]

  Total HF                       -161.48649213 [mEh]    -101.33430370 [kcal/mol]    -423.98272667 [kJ/mol]
  Total SAPT0                    -164.49703212 [mEh]    -103.22344606 [kcal/mol]    -431.88689833 [kJ/mol]
  Total SAPT2                    -156.59918302 [mEh]     -98.26747093 [kcal/mol]    -411.15109838 [kJ/mol]
  Total SAPT2+                   -157.01070920 [mEh]     -98.52570751 [kcal/mol]    -412.23156022 [kJ/mol]

  Special recipe for scaled SAPT0 (see Manual):
    Electrostatics sSAPT0        -154.04036294 [mEh]     -96.66178709 [kcal/mol]    -404.43291718 [kJ/mol]
    Exchange sSAPT0                53.15376017 [mEh]      33.35448807 [kcal/mol]     139.55517810 [kJ/mol]
    Induction sSAPT0              -59.21012220 [mEh]     -37.15491262 [kcal/mol]    -155.45615441 [kJ/mol]
    Dispersion sSAPT0              -2.99318567 [mEh]      -1.87825236 [kcal/mol]      -7.85860789 [kJ/mol]
  Total sSAPT0                   -163.08991063 [mEh]    -102.34046400 [kcal/mol]    -428.19250137 [kJ/mol]
  --------------------------------------------------------------------------------------------------------

*** Psi4 exiting successfully. Buy a developer a beer!
