                               Psi4 1.9 release

  ==> Input File <==

--------------------------------------------------------------------------
MEMORY 60 GB

molecule dimer {
1 1
Li     0.000000     0.000000     0.000000
--
0 1
O      1.466760     0.450408    -1.235185
H      2.148328     1.001972    -0.849832
H      1.104955     0.850723    -2.035762
O     -0.000372    -1.923700     0.069063
H     -0.093103    -2.125757    -0.874898
H     -0.820918    -2.233311     0.458196
O     -2.075430     0.042768    -0.218320
H     -2.709974    -0.583971    -0.554856
H     -2.436149     0.294869     0.600464
O      0.553120     0.728764     1.842899
H      1.471289     1.060141     1.753587
H      0.252809     1.353718     2.508178

units ang
no_reorient
no_com
symmetry c1
}

set {
basis        aug-cc-pVTZ
scf_type     df
}

energy("sapt2+")
--------------------------------------------------------------------------

  //              Dimer HF             //
    Molecular point group: c1
  Charge       = 1
  Multiplicity = 1
  Basis Set: AUG-CC-PVTZ
    Blend: AUG-CC-PVTZ
  Basis Set: (AUG-CC-PVTZ AUX)
    Blend: AUG-CC-PVTZ-JKFIT + DEF2-UNIVERSAL-JKFIT
  @DF-RHF Final Energy:  -311.61686684438729
    Total Energy =                       -311.6168668443872889
 Dipole X            :          2.2463097           -2.8915436           -0.6452339
 Dipole Y            :         11.9592480          -11.3302234            0.6290246
 Dipole Z            :         -8.7088198            8.8301856            0.1213658
 Magnitude           :                                                    0.9092461
  //            Monomer A HF           //
    Molecular point group: c1
  Multiplicity = 1
  Basis Set: AUG-CC-PVTZ
    Blend: AUG-CC-PVTZ
  Basis Set: (AUG-CC-PVTZ AUX)
    Blend: AUG-CC-PVTZ-JKFIT + DEF2-UNIVERSAL-JKFIT
  @DF-RHF Final Energy:    -7.23638482796373
    Total Energy =                         -7.2363848279637288
  //            Monomer B HF           //
    Molecular point group: c1

    Geometry (in Angstrom), charge = 0, multiplicity = 1:

       Center              X                  Y                   Z               Mass
    ------------   -----------------  -----------------  -----------------  -----------------
      Gh(LI)          0.000000000000     0.000000000000     0.000000000000     7.016003436600
         O            1.466760000000     0.450408000000    -1.235185000000    15.994914619570
         H            2.148328000000     1.001972000000    -0.849832000000     1.007825032230
         H            1.104955000000     0.850723000000    -2.035762000000     1.007825032230
         O           -0.000372000000    -1.923700000000     0.069063000000    15.994914619570
         H           -0.093103000000    -2.125757000000    -0.874898000000     1.007825032230
         H           -0.820918000000    -2.233311000000     0.458196000000     1.007825032230
         O           -2.075430000000     0.042768000000    -0.218320000000    15.994914619570
         H           -2.709974000000    -0.583971000000    -0.554856000000     1.007825032230
         H           -2.436149000000     0.294869000000     0.600464000000     1.007825032230
         O            0.553120000000     0.728764000000     1.842899000000    15.994914619570
         H            1.471289000000     1.060141000000     1.753587000000     1.007825032230
         H            0.252809000000     1.353718000000     2.508178000000     1.007825032230

  Charge       = 0
  Multiplicity = 1
  Basis Set: AUG-CC-PVTZ
    Blend: AUG-CC-PVTZ
  Basis Set: (AUG-CC-PVTZ AUX)
    Blend: AUG-CC-PVTZ-JKFIT + DEF2-UNIVERSAL-JKFIT

    Orbital Energies [Eh]
    ---------------------

    Doubly Occupied:

       1A    -20.549248     2A    -20.544977     3A    -20.539086
       4A    -20.520848     5A     -1.344812     6A     -1.328864
       7A     -1.321547     8A     -1.303356     9A     -0.706219
      10A     -0.703925    11A     -0.674100    12A     -0.667621
      13A     -0.573995    14A     -0.567482    15A     -0.546232
      16A     -0.533275    17A     -0.499119    18A     -0.490348
      19A     -0.478279    20A     -0.453733

  @DF-RHF Final Energy:  -304.21743996792827

   => Energetics <=

    Nuclear Repulsion Energy =            130.8856196007104131
    One-Electron Energy =                -681.5119835889901196
    Two-Electron Energy =                 246.4089240203514919
    Total Energy =                       -304.2174399679282715
 Dipole X            :          2.2646969           -2.8915436           -0.6268467
 Dipole Y            :         12.0558615          -11.3302234            0.7256381
 Dipole Z            :         -8.7684248            8.8301856            0.0617609
 Magnitude           :                                                    0.9608860

    SAPT Results
  --------------------------------------------------------------------------------------------------------
    Electrostatics               -133.40461603 [mEh]     -83.71266040 [kcal/mol]    -350.25377113 [kJ/mol]
      Elst10,r                   -143.13895782 [mEh]     -89.82105210 [kcal/mol]    -375.81128198 [kJ/mol]
      Elst12,r                      9.73434179 [mEh]       6.10839170 [kcal/mol]      25.55751086 [kJ/mol]

    Exchange                       37.54357715 [mEh]      23.55895034 [kcal/mol]      98.57064823 [kJ/mol]
      Exch10                       34.40762260 [mEh]      21.59110915 [kcal/mol]      90.33720069 [kJ/mol]
      Exch10(S^2)                  34.09085599 [mEh]      21.39233510 [kcal/mol]      89.50553006 [kJ/mol]
      Exch11(S^2)                  -0.49446605 [mEh]      -0.31028213 [kcal/mol]      -1.29822042 [kJ/mol]
      Exch12(S^2)                   3.63042059 [mEh]       2.27812332 [kcal/mol]       9.53166796 [kJ/mol]

    Induction                     -60.21128294 [mEh]     -37.78315047 [kcal/mol]    -158.08470158 [kJ/mol]
      Ind20,r                     -73.72304393 [mEh]     -46.26190850 [kcal/mol]    -193.55982517 [kJ/mol]
      Ind22                        -8.55846876 [mEh]      -5.37052023 [kcal/mol]     -22.47025664 [kJ/mol]
      Exch-Ind20,r                 22.89526521 [mEh]      14.36699582 [kcal/mol]      60.11151052 [kJ/mol]
      Exch-Ind22                    2.65789910 [mEh]       1.66785687 [kcal/mol]       6.97831313 [kJ/mol]
      delta HF,r (2)               -3.48293455 [mEh]      -2.18557443 [kcal/mol]      -9.14444341 [kJ/mol]

    Dispersion                     -2.61871973 [mEh]      -1.64327144 [kcal/mol]      -6.87544770 [kJ/mol]
      Disp20                       -2.56345265 [mEh]      -1.60859083 [kcal/mol]      -6.73034401 [kJ/mol]
      Disp21                       -0.11251414 [mEh]      -0.07060369 [kcal/mol]      -0.29540584 [kJ/mol]
      Disp22 (SDQ)                 -0.05003907 [mEh]      -0.03139999 [kcal/mol]      -0.13137755 [kJ/mol]
      Disp22 (T)                   -0.14756270 [mEh]      -0.09259699 [kcal/mol]      -0.38742582 [kJ/mol]
      Est. Disp22 (T)              -0.17420497 [mEh]      -0.10931527 [kcal/mol]      -0.45737509 [kJ/mol]
      Exch-Disp20                   0.28149110 [mEh]       0.17663833 [kcal/mol]       0.73905479 [kJ/mol]

  Total HF                       -163.04204850 [mEh]    -102.31043005 [kcal/mol]    -428.06683935 [kJ/mol]
  Total SAPT0                    -165.32401005 [mEh]    -103.74238255 [kcal/mol]    -434.05812857 [kJ/mol]
  Total SAPT2                    -158.35428337 [mEh]     -99.36881303 [kcal/mol]    -415.75911370 [kJ/mol]
  Total SAPT2+                   -158.69104154 [mEh]     -99.58013197 [kcal/mol]    -416.64327217 [kJ/mol]

  Special recipe for scaled SAPT0 (see Manual):
    Electrostatics sSAPT0        -143.13895782 [mEh]     -89.82105210 [kcal/mol]    -375.81128198 [kJ/mol]
    Exchange sSAPT0                34.40762260 [mEh]      21.59110915 [kcal/mol]      90.33720069 [kJ/mol]
    Induction sSAPT0              -53.66654761 [mEh]     -33.67626705 [kcal/mol]    -140.90150133 [kJ/mol]
    Dispersion sSAPT0              -2.27404171 [mEh]      -1.42698272 [kcal/mol]      -5.97049568 [kJ/mol]
  Total sSAPT0                   -164.67192453 [mEh]    -103.33319271 [kcal/mol]    -432.34607830 [kJ/mol]
  --------------------------------------------------------------------------------------------------------

*** Psi4 exiting successfully. Buy a developer a beer!
