                               Psi4 1.9 release

  ==> Input File <==

--------------------------------------------------------------------------
MEMORY 60 GB

molecule dimer {
1 1
Li     0.000000     0.000000     0.000000
--
0 1
O     -0.716880     0.857356    -1.496201
H     -0.733051     0.709649    -2.428935
H     -1.633457     1.096310    -1.306862
O     -0.384169     0.497773     1.852316
H     -1.003665     1.020047     2.428236
H      0.506112     0.522672     2.288627
O      1.950571    -0.041794     0.161548
H      2.264982    -0.901899     0.344035
H      2.628264     0.655770     0.267660
O     -0.621593    -1.900324    -0.167785
H     -1.121968    -2.443415     0.395486
H      0.100099    -2.460018    -0.306883

units ang
no_reorient
no_com
symmetry c1
}

set {
basis        aug-cc-pVTZ
scf_type     df
}

energy("sapt2+")
--------------------------------------------------------------------------

  //              Dimer HF             //
    Molecular point group: c1
  Charge       = 1
  Multiplicity = 1
  Basis Set: AUG-CC-PVTZ
    Blend: AUG-CC-PVTZ
  Basis Set: (AUG-CC-PVTZ AUX)
    Blend: AUG-CC-PVTZ-JKFIT + DEF2-UNIVERSAL-JKFIT
  @DF-RHF Final Energy:  -311.62457728689498
    Total Energy =                       -311.6245772868949757
 Dipole X            :         -4.9235847            5.3493385            0.4257538
 Dipole Y            :         11.8041643          -12.2771651           -0.4730009
 Dipole Z            :         -7.7758070            8.4667063            0.6908993
 Magnitude           :                                                    0.9393284
  //            Monomer A HF           //
    Molecular point group: c1
  Multiplicity = 1
  Basis Set: AUG-CC-PVTZ
    Blend: AUG-CC-PVTZ
  Basis Set: (AUG-CC-PVTZ AUX)
    Blend: AUG-CC-PVTZ-JKFIT + DEF2-UNIVERSAL-JKFIT
  @DF-RHF Final Energy:    -7.23638489686570
    Total Energy =                         -7.2363848968656992
  //            Monomer B HF           //
    Molecular point group: c1

    Geometry (in Angstrom), charge = 0, multiplicity = 1:

       Center              X                  Y                   Z               Mass
    ------------   -----------------  -----------------  -----------------  -----------------
      Gh(LI)          0.000000000000     0.000000000000     0.000000000000     7.016003436600
         O           -0.716880000000     0.857356000000    -1.496201000000    15.994914619570
         H           -0.733051000000     0.709649000000    -2.428935000000     1.007825032230
         H           -1.633457000000     1.096310000000    -1.306862000000     1.007825032230
         O           -0.384169000000     0.497773000000     1.852316000000    15.994914619570
         H           -1.003665000000     1.020047000000     2.428236000000     1.007825032230
         H            0.506112000000     0.522672000000     2.288627000000     1.007825032230
         O            1.950571000000    -0.041794000000     0.161548000000    15.994914619570
         H            2.264982000000    -0.901899000000     0.344035000000     1.007825032230
         H            2.628264000000     0.655770000000     0.267660000000     1.007825032230
         O           -0.621593000000    -1.900324000000    -0.167785000000    15.994914619570
         H           -1.121968000000    -2.443415000000     0.395486000000     1.007825032230
         H            0.100099000000    -2.460018000000    -0.306883000000     1.007825032230

  Charge       = 0
  Multiplicity = 1
  Basis Set: AUG-CC-PVTZ
    Blend: AUG-CC-PVTZ
  Basis Set: (AUG-CC-PVTZ AUX)
    Blend: AUG-CC-PVTZ-JKFIT + DEF2-UNIVERSAL-JKFIT

    Orbital Energies [Eh]
    ---------------------

    Doubly Occupied:

       1A    -20.540145     2A    -20.537397     3A    -20.529511
       4A    -20.522778     5A     -1.341491     6A     -1.326937
       7A     -1.311744     8A     -1.299481     9A     -0.714431
      10A     -0.690070    11A     -0.670878    12A     -0.669085
      13A     -0.569685    14A     -0.548835    15A     -0.535734
      16A     -0.531613    17A     -0.486045    18A     -0.480276
      19A     -0.468470    20A     -0.464173

  @DF-RHF Final Energy:  -304.21224318902870

   => Energetics <=

    Nuclear Repulsion Energy =            132.4927817965875647
    One-Electron Energy =                -684.9324869055376439
    Two-Electron Energy =                 248.2274619199213532
    Total Energy =                       -304.2122431890287544
 Dipole X            :         -4.9647256            5.3493385            0.3846128
 Dipole Y            :         11.8710183          -12.2771651           -0.4061469
 Dipole Z            :         -7.8746353            8.4667063            0.5920710
 Magnitude           :                                                    0.8145123

    SAPT Results
  --------------------------------------------------------------------------------------------------------
    Electrostatics               -143.97101381 [mEh]     -90.34317512 [kcal/mol]    -377.99584468 [kJ/mol]
      Elst10,r                   -156.47575017 [mEh]     -98.19001565 [kcal/mol]    -410.82702546 [kJ/mol]
      Elst12,r                     12.50473635 [mEh]       7.84684053 [kcal/mol]      32.83118078 [kJ/mol]

    Exchange                       42.08628670 [mEh]      26.40954362 [kcal/mol]     110.49753051 [kJ/mol]
      Exch10                       39.29685765 [mEh]      24.65915047 [kcal/mol]     103.17388556 [kJ/mol]
      Exch10(S^2)                  38.88246186 [mEh]      24.39911318 [kcal/mol]     102.08588955 [kJ/mol]
      Exch11(S^2)                  -0.59105756 [mEh]      -0.37089422 [kcal/mol]      -1.55182140 [kJ/mol]
      Exch12(S^2)                   3.38048660 [mEh]       2.12128737 [kcal/mol]       8.87546635 [kJ/mol]

    Induction                     -64.82510071 [mEh]     -40.67836484 [kcal/mol]    -170.19827848 [kJ/mol]
      Ind20,r                     -79.58395551 [mEh]     -49.93968605 [kcal/mol]    -208.94764642 [kJ/mol]
      Ind22                        -8.73178221 [mEh]      -5.47927606 [kcal/mol]     -22.92529103 [kJ/mol]
      Exch-Ind20,r                 24.39885084 [mEh]      15.31051005 [kcal/mol]      64.05917405 [kJ/mol]
      Exch-Ind22                    2.67698998 [mEh]       1.67983657 [kcal/mol]       7.02843623 [kJ/mol]
      delta HF,r (2)               -3.58520381 [mEh]      -2.24974936 [kcal/mol]      -9.41295132 [kJ/mol]

    Dispersion                     -2.98794587 [mEh]      -1.87496434 [kcal/mol]      -7.84485081 [kJ/mol]
      Disp20                       -2.96482194 [mEh]      -1.86045385 [kcal/mol]      -7.78413892 [kJ/mol]
      Disp21                       -0.11046481 [mEh]      -0.06931771 [kcal/mol]      -0.29002531 [kJ/mol]
      Disp22 (SDQ)                 -0.04287838 [mEh]      -0.02690659 [kcal/mol]      -0.11257717 [kJ/mol]
      Disp22 (T)                   -0.17045117 [mEh]      -0.10695973 [kcal/mol]      -0.44751949 [kJ/mol]
      Est. Disp22 (T)              -0.19589012 [mEh]      -0.12292291 [kcal/mol]      -0.51430943 [kJ/mol]
      Exch-Disp20                   0.32610937 [mEh]       0.20463672 [kcal/mol]       0.85620002 [kJ/mol]

  Total HF                       -175.94920100 [mEh]    -110.40979053 [kcal/mol]    -461.95456358 [kJ/mol]
  Total SAPT0                    -178.58791357 [mEh]    -112.06560767 [kcal/mol]    -468.88250248 [kJ/mol]
  Total SAPT2                    -169.34854039 [mEh]    -106.26781347 [kcal/mol]    -444.62453155 [kJ/mol]
  Total SAPT2+                   -169.69777370 [mEh]    -106.48696067 [kcal/mol]    -445.54144346 [kJ/mol]

  Special recipe for scaled SAPT0 (see Manual):
    Electrostatics sSAPT0        -156.47575017 [mEh]     -98.19001565 [kcal/mol]    -410.82702546 [kJ/mol]
    Exchange sSAPT0                39.29685765 [mEh]      24.65915047 [kcal/mol]     103.17388556 [kJ/mol]
    Induction sSAPT0              -57.98186141 [mEh]     -36.38416734 [kcal/mol]    -152.23135616 [kJ/mol]
    Dispersion sSAPT0              -2.62817437 [mEh]      -1.64920432 [kcal/mol]      -6.90027086 [kJ/mol]
  Total sSAPT0                   -177.78892829 [mEh]    -111.56423684 [kcal/mol]    -466.78476692 [kJ/mol]
  --------------------------------------------------------------------------------------------------------

*** Psi4 exiting successfully. Buy a developer a beer!
