                               Psi4 1.9 release

  ==> Input File <==

--------------------------------------------------------------------------
MEMORY 60 GB

molecule dimer {
1 1
Li     0.000000     0.000000     0.000000
--
0 1
O      0.834436    -0.241329    -1.578276
H      1.191917    -1.111872    -1.723723
H      1.469698     0.437227    -1.857302
O     -1.157150    -1.678256     0.354050
H     -2.090219    -1.865260     0.521759
H     -0.712408    -2.505514     0.115149
O     -1.517712     1.412924    -0.255778
H     -1.084382     2.261262    -0.283873
H     -1.989995     1.420311     0.576573
O      0.904310     1.187102     1.315687
H      1.168203     0.886967     2.209891
H      0.442074     1.996661     1.434603

units ang
no_reorient
no_com
symmetry c1
}

set {
basis        aug-cc-pVTZ
scf_type     df
}

energy("sapt2+")
--------------------------------------------------------------------------

  //              Dimer HF             //
    Molecular point group: c1
  Charge       = 1
  Multiplicity = 1
  Basis Set: AUG-CC-PVTZ
    Blend: AUG-CC-PVTZ
  Basis Set: (AUG-CC-PVTZ AUX)
    Blend: AUG-CC-PVTZ-JKFIT + DEF2-UNIVERSAL-JKFIT
  @DF-RHF Final Energy:  -311.62011965374546
    Total Energy =                       -311.6201196537454621
 Dipole X            :         17.2806011          -17.1852450            0.0953561
 Dipole Y            :        -13.0249289           13.1587488            0.1338199
 Dipole Z            :          1.4288957           -0.6074695            0.8214262
 Magnitude           :                                                    0.8377002
  //            Monomer A HF           //
    Molecular point group: c1
  Multiplicity = 1
  Basis Set: AUG-CC-PVTZ
    Blend: AUG-CC-PVTZ
  Basis Set: (AUG-CC-PVTZ AUX)
    Blend: AUG-CC-PVTZ-JKFIT + DEF2-UNIVERSAL-JKFIT
  @DF-RHF Final Energy:    -7.23638479994624
    Total Energy =                         -7.2363847999462436
  //            Monomer B HF           //
    Molecular point group: c1

    Geometry (in Angstrom), charge = 0, multiplicity = 1:

       Center              X                  Y                   Z               Mass
    ------------   -----------------  -----------------  -----------------  -----------------
      Gh(LI)          0.000000000000     0.000000000000     0.000000000000     7.016003436600
         O            0.834436000000    -0.241329000000    -1.578276000000    15.994914619570
         H            1.191917000000    -1.111872000000    -1.723723000000     1.007825032230
         H            1.469698000000     0.437227000000    -1.857302000000     1.007825032230
         O           -1.157150000000    -1.678256000000     0.354050000000    15.994914619570
         H           -2.090219000000    -1.865260000000     0.521759000000     1.007825032230
         H           -0.712408000000    -2.505514000000     0.115149000000     1.007825032230
         O           -1.517712000000     1.412924000000    -0.255778000000    15.994914619570
         H           -1.084382000000     2.261262000000    -0.283873000000     1.007825032230
         H           -1.989995000000     1.420311000000     0.576573000000     1.007825032230
         O            0.904310000000     1.187102000000     1.315687000000    15.994914619570
         H            1.168203000000     0.886967000000     2.209891000000     1.007825032230
         H            0.442074000000     1.996661000000     1.434603000000     1.007825032230

  Charge       = 0
  Multiplicity = 1
  Basis Set: AUG-CC-PVTZ
    Blend: AUG-CC-PVTZ
  Basis Set: (AUG-CC-PVTZ AUX)
    Blend: AUG-CC-PVTZ-JKFIT + DEF2-UNIVERSAL-JKFIT

    Orbital Energies [Eh]
    ---------------------

    Doubly Occupied:

       1A    -20.544801     2A    -20.540060     3A    -20.534324
       4A    -20.526932     5A     -1.332151     6A     -1.322689
       7A     -1.318600     8A     -1.309592     9A     -0.701853
      10A     -0.695485    11A     -0.689406    12A     -0.684917
      13A     -0.562665    14A     -0.553637    15A     -0.543373
      16A     -0.528245    17A     -0.494810    18A     -0.480026
      19A     -0.468772    20A     -0.467894

  @DF-RHF Final Energy:  -304.21526212622484

   => Energetics <=

    Nuclear Repulsion Energy =            131.8936266382920053
    One-Electron Energy =                -683.6173084168106016
    Two-Electron Energy =                 247.5084196522936963
    Total Energy =                       -304.2152621262248431
 Dipole X            :         17.3604201          -17.1852450            0.1751751
 Dipole Y            :        -13.1273956           13.1587488            0.0313533
 Dipole Z            :          1.4420594           -0.6074695            0.8345899
 Magnitude           :                                                    0.8533520

    SAPT Results
  --------------------------------------------------------------------------------------------------------
    Electrostatics               -141.76334450 [mEh]     -88.95784171 [kcal/mol]    -372.19960970 [kJ/mol]
      Elst10,r                   -152.55795227 [mEh]     -95.73156035 [kcal/mol]    -400.54084850 [kJ/mol]
      Elst12,r                     10.79460777 [mEh]       6.77371864 [kcal/mol]      28.34123880 [kJ/mol]

    Exchange                       43.95587457 [mEh]      27.58272772 [kcal/mol]     115.40613279 [kJ/mol]
      Exch10                       40.88057369 [mEh]      25.65294728 [kcal/mol]     107.33193142 [kJ/mol]
      Exch10(S^2)                  40.43635034 [mEh]      25.37419292 [kcal/mol]     106.16562319 [kJ/mol]
      Exch11(S^2)                  -0.56873653 [mEh]      -0.35688756 [kcal/mol]      -1.49321755 [kJ/mol]
      Exch12(S^2)                   3.64403742 [mEh]       2.28666800 [kcal/mol]       9.56741892 [kJ/mol]

    Induction                     -62.74660395 [mEh]     -39.37408843 [kcal/mol]    -164.74118598 [kJ/mol]
      Ind20,r                     -78.81230249 [mEh]     -49.45546646 [kcal/mol]    -206.92167167 [kJ/mol]
      Ind22                        -8.87354286 [mEh]      -5.56823221 [kcal/mol]     -23.29748356 [kJ/mol]
      Exch-Ind20,r                 25.95493605 [mEh]      16.28696826 [kcal/mol]      68.14467521 [kJ/mol]
      Exch-Ind22                    2.92228789 [mEh]       1.83376334 [kcal/mol]       7.67246581 [kJ/mol]
      delta HF,r (2)               -3.93798255 [mEh]      -2.47112136 [kcal/mol]     -10.33917177 [kJ/mol]

    Dispersion                     -2.89301989 [mEh]      -1.81539739 [kcal/mol]      -7.59562266 [kJ/mol]
      Disp20                       -2.85941889 [mEh]      -1.79431245 [kcal/mol]      -7.50740327 [kJ/mol]
      Disp21                       -0.11844027 [mEh]      -0.07432239 [kcal/mol]      -0.31096488 [kJ/mol]
      Disp22 (SDQ)                 -0.04823309 [mEh]      -0.03026672 [kcal/mol]      -0.12663597 [kJ/mol]
      Disp22 (T)                   -0.16162454 [mEh]      -0.10142093 [kcal/mol]      -0.42434518 [kJ/mol]
      Est. Disp22 (T)              -0.18984787 [mEh]      -0.11913134 [kcal/mol]      -0.49844552 [kJ/mol]
      Exch-Disp20                   0.32292024 [mEh]       0.20263551 [kcal/mol]       0.84782698 [kJ/mol]

  Total HF                       -168.47272757 [mEh]    -105.71823263 [kcal/mol]    -442.32508531 [kJ/mol]
  Total SAPT0                    -171.00922623 [mEh]    -107.30990956 [kcal/mol]    -448.98466160 [kJ/mol]
  Total SAPT2                    -163.09057253 [mEh]    -102.34087935 [kcal/mol]    -428.19423919 [kJ/mol]
  Total SAPT2+                   -163.44709377 [mEh]    -102.56459980 [kcal/mol]    -429.13028556 [kJ/mol]

  Special recipe for scaled SAPT0 (see Manual):
    Electrostatics sSAPT0        -152.55795227 [mEh]     -95.73156035 [kcal/mol]    -400.54084850 [kJ/mol]
    Exchange sSAPT0                40.88057369 [mEh]      25.65294728 [kcal/mol]     107.33193142 [kJ/mol]
    Induction sSAPT0              -55.93051459 [mEh]     -35.09692778 [kcal/mol]    -146.84554582 [kJ/mol]
    Dispersion sSAPT0              -2.52573875 [mEh]      -1.58492499 [kcal/mol]      -6.63132618 [kJ/mol]
  Total sSAPT0                   -170.13363192 [mEh]    -106.76046584 [kcal/mol]    -446.68578907 [kJ/mol]
  --------------------------------------------------------------------------------------------------------

*** Psi4 exiting successfully. Buy a developer a beer!
