                               Psi4 1.9 release

  ==> Input File <==

--------------------------------------------------------------------------
MEMORY 60 GB

molecule dimer {
1 1
Li     0.000000     0.000000     0.000000
--
0 1
O      1.891419    -0.158379     0.528671
H      2.349768    -0.987879     0.327543
H      1.829373    -0.013513     1.475622
O     -0.554841     1.482555     1.052622
H     -0.087815     1.879686     1.842708
H     -0.786767     2.214477     0.472406
O     -0.527123    -0.402664    -1.792316
H     -0.769570     0.305457    -2.402126
H     -0.735432    -1.286504    -2.275183

units ang
no_reorient
no_com
symmetry c1
}

set {
basis        aug-cc-pVTZ
scf_type     df
}

energy("sapt2+")
--------------------------------------------------------------------------

  //              Dimer HF             //
    Molecular point group: c1
  Charge       = 1
  Multiplicity = 1
  Basis Set: AUG-CC-PVTZ
    Blend: AUG-CC-PVTZ
  Basis Set: (AUG-CC-PVTZ AUX)
    Blend: AUG-CC-PVTZ-JKFIT + DEF2-UNIVERSAL-JKFIT
  @DF-RHF Final Energy:  -235.53627955778708
    Total Energy =                       -235.5362795577870827
 Dipole X            :        -15.3911387           15.6378560            0.2467173
 Dipole Y            :        -17.5911975           17.9218224            0.3306249
 Dipole Z            :          4.0726848           -4.2466190           -0.1739342
 Magnitude           :                                                    0.4477001
  //            Monomer A HF           //
    Molecular point group: c1
  Multiplicity = 1
  Basis Set: AUG-CC-PVTZ
    Blend: AUG-CC-PVTZ
  Basis Set: (AUG-CC-PVTZ AUX)
    Blend: AUG-CC-PVTZ-JKFIT + DEF2-UNIVERSAL-JKFIT
  @DF-RHF Final Energy:    -7.23638448952809
    Total Energy =                         -7.2363844895280893
  //            Monomer B HF           //
    Molecular point group: c1

    Geometry (in Angstrom), charge = 0, multiplicity = 1:

       Center              X                  Y                   Z               Mass
    ------------   -----------------  -----------------  -----------------  -----------------
      Gh(LI)          0.000000000000     0.000000000000     0.000000000000     7.016003436600
         O            1.891419000000    -0.158379000000     0.528671000000    15.994914619570
         H            2.349768000000    -0.987879000000     0.327543000000     1.007825032230
         H            1.829373000000    -0.013513000000     1.475622000000     1.007825032230
         O           -0.554841000000     1.482555000000     1.052622000000    15.994914619570
         H           -0.087815000000     1.879686000000     1.842708000000     1.007825032230
         H           -0.786767000000     2.214477000000     0.472406000000     1.007825032230
         O           -0.527123000000    -0.402664000000    -1.792316000000    15.994914619570
         H           -0.769570000000     0.305457000000    -2.402126000000     1.007825032230
         H           -0.735432000000    -1.286504000000    -2.275183000000     1.007825032230

  Charge       = 0
  Multiplicity = 1
  Basis Set: AUG-CC-PVTZ
    Blend: AUG-CC-PVTZ
  Basis Set: (AUG-CC-PVTZ AUX)
    Blend: AUG-CC-PVTZ-JKFIT + DEF2-UNIVERSAL-JKFIT

    Orbital Energies [Eh]
    ---------------------

    Doubly Occupied:

       1A    -20.553438     2A    -20.550283     3A    -20.538257
       4A     -1.322022     5A     -1.317633     6A     -1.314094
       7A     -0.702064     8A     -0.688954     9A     -0.681115
      10A     -0.559864    11A     -0.549285    12A     -0.540586
      13A     -0.488590    14A     -0.486762    15A     -0.477028

  @DF-RHF Final Energy:  -228.15893520532694

   => Energetics <=

    Nuclear Repulsion Energy =             73.5734483659155245
    One-Electron Energy =                -461.9248107054567072
    Two-Electron Energy =                 160.1924271342142561
    Total Energy =                       -228.1589352053269408
 Dipole X            :        -15.5455605           15.6378560            0.0922954
 Dipole Y            :        -17.7621823           17.9218224            0.1596401
 Dipole Z            :          4.1345873           -4.2466190           -0.1120317
 Magnitude           :                                                    0.2157649

    SAPT Results
  --------------------------------------------------------------------------------------------------------
    Electrostatics               -119.52119927 [mEh]     -75.00068486 [kcal/mol]    -313.80286545 [kJ/mol]
      Elst10,r                   -128.63788943 [mEh]     -80.72149430 [kcal/mol]    -337.73873217 [kJ/mol]
      Elst12,r                      9.11669016 [mEh]       5.72080944 [kcal/mol]      23.93586672 [kJ/mol]

    Exchange                       39.11650429 [mEh]      24.54597702 [kcal/mol]     102.70036787 [kJ/mol]
      Exch10                       36.40776260 [mEh]      22.84621595 [kcal/mol]      95.58856753 [kJ/mol]
      Exch10(S^2)                  36.05560119 [mEh]      22.62523133 [kcal/mol]      94.66396789 [kJ/mol]
      Exch11(S^2)                  -0.42059075 [mEh]      -0.26392468 [kcal/mol]      -1.10426085 [kJ/mol]
      Exch12(S^2)                   3.12933244 [mEh]       1.96368575 [kcal/mol]       8.21606119 [kJ/mol]

    Induction                     -53.53281845 [mEh]     -33.59235073 [kcal/mol]    -140.55039547 [kJ/mol]
      Ind20,r                     -70.07986089 [mEh]     -43.97577663 [kcal/mol]    -183.99464941 [kJ/mol]
      Ind22                        -7.34330788 [mEh]      -4.60799527 [kcal/mol]     -19.27985219 [kJ/mol]
      Exch-Ind20,r                 24.24229720 [mEh]      15.21227116 [kcal/mol]      63.64814254 [kJ/mol]
      Exch-Ind22                    2.54022554 [mEh]       1.59401559 [kcal/mol]       6.66936123 [kJ/mol]
      delta HF,r (2)               -2.89217241 [mEh]      -1.81486559 [kcal/mol]      -7.59339763 [kJ/mol]

    Dispersion                     -2.36198025 [mEh]      -1.48216499 [kcal/mol]      -6.20137830 [kJ/mol]
      Disp20                       -2.33330658 [mEh]      -1.46417198 [kcal/mol]      -6.12609557 [kJ/mol]
      Disp21                       -0.10691934 [mEh]      -0.06709290 [kcal/mol]      -0.28071668 [kJ/mol]
      Disp22 (SDQ)                 -0.03681123 [mEh]      -0.02309940 [kcal/mol]      -0.09664788 [kJ/mol]
      Disp22 (T)                   -0.13345559 [mEh]      -0.08374465 [kcal/mol]      -0.35038761 [kJ/mol]
      Est. Disp22 (T)              -0.15653454 [mEh]      -0.09822691 [kcal/mol]      -0.41098139 [kJ/mol]
      Exch-Disp20                   0.27159144 [mEh]       0.17042620 [kcal/mol]       0.71306323 [kJ/mol]

  Total HF                       -140.95986293 [mEh]     -88.45364941 [kcal/mol]    -370.09006914 [kJ/mol]
  Total SAPT0                    -143.02157807 [mEh]     -89.74739519 [kcal/mol]    -375.50310148 [kJ/mol]
  Total SAPT2                    -135.99922856 [mEh]     -85.34080435 [kcal/mol]    -357.06592539 [kJ/mol]
  Total SAPT2+                   -136.29949368 [mEh]     -85.52922355 [kcal/mol]    -357.85427135 [kJ/mol]

  Special recipe for scaled SAPT0 (see Manual):
    Electrostatics sSAPT0        -128.63788943 [mEh]     -80.72149430 [kcal/mol]    -337.73873217 [kJ/mol]
    Exchange sSAPT0                36.40776260 [mEh]      22.84621595 [kcal/mol]      95.58856753 [kJ/mol]
    Induction sSAPT0              -48.01243918 [mEh]     -30.12826044 [kcal/mol]    -126.05664170 [kJ/mol]
    Dispersion sSAPT0              -2.05367911 [mEh]      -1.28870310 [kcal/mol]      -5.39193376 [kJ/mol]
  Total sSAPT0                   -142.29624513 [mEh]     -89.29224190 [kcal/mol]    -373.59874011 [kJ/mol]
  --------------------------------------------------------------------------------------------------------

*** Psi4 exiting successfully. Buy a developer a beer!
