                               Psi4 1.9 release

  ==> Input File <==

--------------------------------------------------------------------------
MEMORY 60 GB

molecule dimer {
1 1
Li     0.000000     0.000000     0.000000
--
0 1
O     -0.984691    -0.969052     1.267687
H     -1.298677    -0.512598     2.085258
H     -1.774992    -1.550102     1.066930
O      0.635689     1.405102     0.678468
H      1.386421     1.451552     1.210237
H     -0.135008     1.841375     1.074997
O      1.465994    -1.501291    -0.557694
H      1.460995    -2.365831    -0.942800
H      1.959287    -0.902242    -1.128803
O     -0.443803     0.020399    -1.936730
H     -0.816450    -0.798888    -2.251870
H     -1.133766     0.682308    -2.119070

units ang
no_reorient
no_com
symmetry c1
}

set {
basis        aug-cc-pVTZ
scf_type     df
}

energy("sapt2+")
--------------------------------------------------------------------------

  //              Dimer HF             //
    Molecular point group: c1
  Charge       = 1
  Multiplicity = 1
  Basis Set: AUG-CC-PVTZ
    Blend: AUG-CC-PVTZ
  Basis Set: (AUG-CC-PVTZ AUX)
    Blend: AUG-CC-PVTZ-JKFIT + DEF2-UNIVERSAL-JKFIT
  @DF-RHF Final Energy:  -311.60875566155431
    Total Energy =                       -311.6087556615543122
 Dipole X            :        -10.5762328            9.5116001           -1.0646327
 Dipole Y            :         19.7341903          -19.8669969           -0.1328066
 Dipole Z            :         10.2665406          -10.1880294            0.0785112
 Magnitude           :                                                    1.0757530
  //            Monomer A HF           //
    Molecular point group: c1
  Multiplicity = 1
  Basis Set: AUG-CC-PVTZ
    Blend: AUG-CC-PVTZ
  Basis Set: (AUG-CC-PVTZ AUX)
    Blend: AUG-CC-PVTZ-JKFIT + DEF2-UNIVERSAL-JKFIT
  @DF-RHF Final Energy:    -7.23638489356753
    Total Energy =                         -7.2363848935675321
  //            Monomer B HF           //
    Molecular point group: c1

    Geometry (in Angstrom), charge = 0, multiplicity = 1:

       Center              X                  Y                   Z               Mass
    ------------   -----------------  -----------------  -----------------  -----------------
      Gh(LI)          0.000000000000     0.000000000000     0.000000000000     7.016003436600
         O           -0.984691000000    -0.969052000000     1.267687000000    15.994914619570
         H           -1.298677000000    -0.512598000000     2.085258000000     1.007825032230
         H           -1.774992000000    -1.550102000000     1.066930000000     1.007825032230
         O            0.635689000000     1.405102000000     0.678468000000    15.994914619570
         H            1.386421000000     1.451552000000     1.210237000000     1.007825032230
         H           -0.135008000000     1.841375000000     1.074997000000     1.007825032230
         O            1.465994000000    -1.501291000000    -0.557694000000    15.994914619570
         H            1.460995000000    -2.365831000000    -0.942800000000     1.007825032230
         H            1.959287000000    -0.902242000000    -1.128803000000     1.007825032230
         O           -0.443803000000     0.020399000000    -1.936730000000    15.994914619570
         H           -0.816450000000    -0.798888000000    -2.251870000000     1.007825032230
         H           -1.133766000000     0.682308000000    -2.119070000000     1.007825032230

  Charge       = 0
  Multiplicity = 1
  Basis Set: AUG-CC-PVTZ
    Blend: AUG-CC-PVTZ
  Basis Set: (AUG-CC-PVTZ AUX)
    Blend: AUG-CC-PVTZ-JKFIT + DEF2-UNIVERSAL-JKFIT

    Orbital Energies [Eh]
    ---------------------

    Doubly Occupied:

       1A    -20.547896     2A    -20.537283     3A    -20.527724
       4A    -20.521238     5A     -1.322956     6A     -1.320611
       7A     -1.310559     8A     -1.308642     9A     -0.708572
      10A     -0.686619    11A     -0.683784    12A     -0.663861
      13A     -0.562553    14A     -0.553953    15A     -0.533365
      16A     -0.527421    17A     -0.487306    18A     -0.476799
      19A     -0.469133    20A     -0.461977

  @DF-RHF Final Energy:  -304.21135859361044

   => Energetics <=

    Nuclear Repulsion Energy =            134.2827137591814903
    One-Electron Energy =                -688.5636352822481285
    Two-Electron Energy =                 250.0695629294561400
    Total Energy =                       -304.2113585936104414
 Dipole X            :        -10.5480801            9.5116001           -1.0364800
 Dipole Y            :         19.8403707          -19.8669969           -0.0266262
 Dipole Z            :         10.2633930          -10.1880294            0.0753636
 Magnitude           :                                                    1.0395573

    SAPT Results
  --------------------------------------------------------------------------------------------------------
    Electrostatics               -145.84261888 [mEh]     -91.51762503 [kcal/mol]    -382.90974311 [kJ/mol]
      Elst10,r                   -157.53434394 [mEh]     -98.85429327 [kcal/mol]    -413.60636302 [kJ/mol]
      Elst12,r                     11.69172506 [mEh]       7.33666824 [kcal/mol]      30.69661992 [kJ/mol]

    Exchange                       63.12960286 [mEh]      39.61442387 [kcal/mol]     165.74674947 [kJ/mol]
      Exch10                       59.67087568 [mEh]      37.44403980 [kcal/mol]     156.66586251 [kJ/mol]
      Exch10(S^2)                  58.73847997 [mEh]      36.85895266 [kcal/mol]     154.21785791 [kJ/mol]
      Exch11(S^2)                  -0.87008757 [mEh]      -0.54598819 [kcal/mol]      -2.28441461 [kJ/mol]
      Exch12(S^2)                   4.32881475 [mEh]       2.71637227 [kcal/mol]      11.36530157 [kJ/mol]

    Induction                     -69.42303147 [mEh]     -43.56360995 [kcal/mol]    -182.27014402 [kJ/mol]
      Ind20,r                     -92.47105733 [mEh]     -58.02646453 [kcal/mol]    -242.78272758 [kJ/mol]
      Ind22                       -10.07824643 [mEh]      -6.32419511 [kcal/mol]     -26.46043235 [kJ/mol]
      Exch-Ind20,r                 34.90216341 [mEh]      21.90143819 [kcal/mol]      91.63561740 [kJ/mol]
      Exch-Ind22                    3.80392107 [mEh]       2.38699651 [kcal/mol]       9.98719340 [kJ/mol]
      delta HF,r (2)               -5.57981219 [mEh]      -3.50138501 [kcal/mol]     -14.64979490 [kJ/mol]

    Dispersion                     -3.71043558 [mEh]      -2.32833348 [kcal/mol]      -9.74174727 [kJ/mol]
      Disp20                       -3.72944461 [mEh]      -2.34026182 [kcal/mol]      -9.79165547 [kJ/mol]
      Disp21                       -0.12975644 [mEh]      -0.08142339 [kcal/mol]      -0.34067548 [kJ/mol]
      Disp22 (SDQ)                 -0.05329869 [mEh]      -0.03344544 [kcal/mol]      -0.13993570 [kJ/mol]
      Disp22 (T)                   -0.21167820 [mEh]      -0.13283008 [kcal/mol]      -0.55576105 [kJ/mol]
      Est. Disp22 (T)              -0.24173372 [mEh]      -0.15169020 [kcal/mol]      -0.63467179 [kJ/mol]
      Exch-Disp20                   0.44379788 [mEh]       0.27848738 [kcal/mol]       1.16519119 [kJ/mol]

  Total HF                       -161.01217438 [mEh]    -101.03666481 [kcal/mol]    -422.73740558 [kJ/mol]
  Total SAPT0                    -164.29782110 [mEh]    -103.09843926 [kcal/mol]    -431.36386987 [kJ/mol]
  Total SAPT2                    -155.42169421 [mEh]     -97.52858555 [kcal/mol]    -408.05960194 [kJ/mol]
  Total SAPT2+                   -155.84648307 [mEh]     -97.79514458 [kcal/mol]    -409.17488492 [kJ/mol]

  Special recipe for scaled SAPT0 (see Manual):
    Electrostatics sSAPT0        -157.53434394 [mEh]     -98.85429327 [kcal/mol]    -413.60636302 [kJ/mol]
    Exchange sSAPT0                59.67087568 [mEh]      37.44403980 [kcal/mol]     156.66586251 [kJ/mol]
    Induction sSAPT0              -61.46010614 [mEh]     -38.56679886 [kcal/mol]    -161.36348645 [kJ/mol]
    Dispersion sSAPT0              -3.26417536 [mEh]      -2.04830096 [kcal/mol]      -8.57009123 [kJ/mol]
  Total sSAPT0                   -162.58774976 [mEh]    -102.02535329 [kcal/mol]    -426.87407819 [kJ/mol]
  --------------------------------------------------------------------------------------------------------

*** Psi4 exiting successfully. Buy a developer a beer!
