                               Psi4 1.9 release

  ==> Input File <==

--------------------------------------------------------------------------
MEMORY 60 GB

molecule dimer {
1 1
Li     0.000000     0.000000     0.000000
--
0 1
O     -0.101817    -1.813061    -0.036423
H     -0.471130    -2.250333    -0.763005
H      0.017925    -2.436449     0.694730
O     -1.581748     0.573901     1.043698
H     -1.213933     0.624233     1.880971
H     -1.854365     1.500408     0.850485
O      0.827787     0.387737    -1.742301
H      1.255888    -0.363424    -2.191003
H      1.514001     1.055898    -1.641117

units ang
no_reorient
no_com
symmetry c1
}

set {
basis        aug-cc-pVTZ
scf_type     df
}

energy("sapt2+")
--------------------------------------------------------------------------

  //              Dimer HF             //
    Molecular point group: c1
  Charge       = 1
  Multiplicity = 1
  Basis Set: AUG-CC-PVTZ
    Blend: AUG-CC-PVTZ
  Basis Set: (AUG-CC-PVTZ AUX)
    Blend: AUG-CC-PVTZ-JKFIT + DEF2-UNIVERSAL-JKFIT
  @DF-RHF Final Energy:  -235.53727577881426
    Total Energy =                       -235.5372757788142621
 Dipole X            :         14.8598901          -14.3578330            0.5020572
 Dipole Y            :         16.0845094          -16.4048089           -0.3202994
 Dipole Z            :         13.4104348          -13.3209572            0.0894775
 Magnitude           :                                                    0.6022121
  //            Monomer A HF           //
    Molecular point group: c1
  Multiplicity = 1
  Basis Set: AUG-CC-PVTZ
    Blend: AUG-CC-PVTZ
  Basis Set: (AUG-CC-PVTZ AUX)
    Blend: AUG-CC-PVTZ-JKFIT + DEF2-UNIVERSAL-JKFIT
  @DF-RHF Final Energy:    -7.23638451492281
    Total Energy =                         -7.2363845149228094
  //            Monomer B HF           //
    Molecular point group: c1

    Geometry (in Angstrom), charge = 0, multiplicity = 1:

       Center              X                  Y                   Z               Mass
    ------------   -----------------  -----------------  -----------------  -----------------
      Gh(LI)          0.000000000000     0.000000000000     0.000000000000     7.016003436600
         O           -0.101817000000    -1.813061000000    -0.036423000000    15.994914619570
         H           -0.471130000000    -2.250333000000    -0.763005000000     1.007825032230
         H            0.017925000000    -2.436449000000     0.694730000000     1.007825032230
         O           -1.581748000000     0.573901000000     1.043698000000    15.994914619570
         H           -1.213933000000     0.624233000000     1.880971000000     1.007825032230
         H           -1.854365000000     1.500408000000     0.850485000000     1.007825032230
         O            0.827787000000     0.387737000000    -1.742301000000    15.994914619570
         H            1.255888000000    -0.363424000000    -2.191003000000     1.007825032230
         H            1.514001000000     1.055898000000    -1.641117000000     1.007825032230

  Charge       = 0
  Multiplicity = 1
  Basis Set: AUG-CC-PVTZ
    Blend: AUG-CC-PVTZ
  Basis Set: (AUG-CC-PVTZ AUX)
    Blend: AUG-CC-PVTZ-JKFIT + DEF2-UNIVERSAL-JKFIT

    Orbital Energies [Eh]
    ---------------------

    Doubly Occupied:

       1A    -20.545012     2A    -20.539236     3A    -20.536837
       4A     -1.333352     5A     -1.330720     6A     -1.323662
       7A     -0.710294     8A     -0.694535     9A     -0.690965
      10A     -0.566849    11A     -0.556455    12A     -0.544175
      13A     -0.488523    14A     -0.484324    15A     -0.477067

  @DF-RHF Final Energy:  -228.16582738509769

   => Energetics <=

    Nuclear Repulsion Energy =             75.1747493758555407
    One-Electron Energy =                -465.0371356581779310
    Two-Electron Energy =                 161.6965588972247190
    Total Energy =                       -228.1658273850976855
 Dipole X            :         14.9710239          -14.3578330            0.6131909
 Dipole Y            :         16.2862918          -16.4048089           -0.1185171
 Dipole Z            :         13.5347366          -13.3209572            0.2137794
 Magnitude           :                                                    0.6601144

    SAPT Results
  --------------------------------------------------------------------------------------------------------
    Electrostatics               -118.36484089 [mEh]     -74.27505902 [kcal/mol]    -310.76684694 [kJ/mol]
      Elst10,r                   -126.38986871 [mEh]     -79.31084000 [kcal/mol]    -331.83655458 [kJ/mol]
      Elst12,r                      8.02502782 [mEh]       5.03578098 [kcal/mol]      21.06970764 [kJ/mol]

    Exchange                       42.99461066 [mEh]      26.97952551 [kcal/mol]     112.88233473 [kJ/mol]
      Exch10                       39.96674375 [mEh]      25.07951034 [kcal/mol]     104.93267125 [kJ/mol]
      Exch10(S^2)                  39.54359665 [mEh]      24.81398153 [kcal/mol]     103.82169871 [kJ/mol]
      Exch11(S^2)                  -0.45478083 [mEh]      -0.28537928 [kcal/mol]      -1.19402691 [kJ/mol]
      Exch12(S^2)                   3.48264774 [mEh]       2.18539445 [kcal/mol]       9.14369039 [kJ/mol]

    Induction                     -53.46017660 [mEh]     -33.54676728 [kcal/mol]    -140.35967432 [kJ/mol]
      Ind20,r                     -71.55030167 [mEh]     -44.89849215 [kcal/mol]    -187.85529115 [kJ/mol]
      Ind22                        -7.61837604 [mEh]      -4.78060314 [kcal/mol]     -20.00204353 [kJ/mol]
      Exch-Ind20,r                 26.28722317 [mEh]      16.49548158 [kcal/mol]      69.01709492 [kJ/mol]
      Exch-Ind22                    2.79895327 [mEh]       1.75636970 [kcal/mol]       7.34865081 [kJ/mol]
      delta HF,r (2)               -3.37767533 [mEh]      -2.11952327 [kcal/mol]      -8.86808536 [kJ/mol]

    Dispersion                     -2.50265768 [mEh]      -1.57044140 [kcal/mol]      -6.57072683 [kJ/mol]
      Disp20                       -2.47265702 [mEh]      -1.55161571 [kcal/mol]      -6.49196011 [kJ/mol]
      Disp21                       -0.11524791 [mEh]      -0.07231915 [kcal/mol]      -0.30258334 [kJ/mol]
      Disp22 (SDQ)                 -0.04352250 [mEh]      -0.02731078 [kcal/mol]      -0.11426831 [kJ/mol]
      Disp22 (T)                   -0.13811615 [mEh]      -0.08666919 [kcal/mol]      -0.36262389 [kJ/mol]
      Est. Disp22 (T)              -0.16317519 [mEh]      -0.10239398 [kcal/mol]      -0.42841640 [kJ/mol]
      Exch-Disp20                   0.29194494 [mEh]       0.18319821 [kcal/mol]       0.76650133 [kJ/mol]

  Total HF                       -135.06387879 [mEh]     -84.75386351 [kcal/mol]    -354.61016492 [kJ/mol]
  Total SAPT0                    -137.24459088 [mEh]     -86.12228100 [kcal/mol]    -360.33562370 [kJ/mol]
  Total SAPT2                    -131.01111891 [mEh]     -82.21071829 [kcal/mol]    -343.96964531 [kJ/mol]
  Total SAPT2+                   -131.33306451 [mEh]     -82.41274220 [kcal/mol]    -344.81491336 [kJ/mol]

  Special recipe for scaled SAPT0 (see Manual):
    Electrostatics sSAPT0        -126.38986871 [mEh]     -79.31084000 [kcal/mol]    -331.83655458 [kJ/mol]
    Exchange sSAPT0                39.96674375 [mEh]      25.07951034 [kcal/mol]     104.93267125 [kJ/mol]
    Induction sSAPT0              -47.78781053 [mEh]     -29.98730384 [kcal/mol]    -125.46687926 [kJ/mol]
    Dispersion sSAPT0              -2.17123933 [mEh]      -1.36247325 [kcal/mol]      -5.70058806 [kJ/mol]
  Total sSAPT0                   -136.38217482 [mEh]     -85.58110675 [kcal/mol]    -358.07135066 [kJ/mol]
  --------------------------------------------------------------------------------------------------------

*** Psi4 exiting successfully. Buy a developer a beer!
