                               Psi4 1.9 release

  ==> Input File <==

--------------------------------------------------------------------------
MEMORY 60 GB

molecule dimer {
1 1
Li     0.000000     0.000000     0.000000
--
0 1
O     -0.398786    -1.589021    -1.083653
H      0.104594    -1.896182    -1.796161
H     -0.340299    -2.316178    -0.427544
O      1.473191    -0.539863     0.795211
H      2.355782    -0.467384     0.412253
H      1.505819    -1.406148     1.233169
O      0.501553     1.463017    -1.262223
H     -0.051961     1.314977    -2.033203
H      1.407051     1.606647    -1.681690
O     -1.690669     0.465935     0.912623
H     -1.690927     0.654825     1.943650
H     -2.533637     0.109345     0.695255

units ang
no_reorient
no_com
symmetry c1
}

set {
basis        aug-cc-pVTZ
scf_type     df
}

energy("sapt2+")
--------------------------------------------------------------------------

  //              Dimer HF             //
    Molecular point group: c1
  Charge       = 1
  Multiplicity = 1
  Basis Set: AUG-CC-PVTZ
    Blend: AUG-CC-PVTZ
  Basis Set: (AUG-CC-PVTZ AUX)
    Blend: AUG-CC-PVTZ-JKFIT + DEF2-UNIVERSAL-JKFIT
  @DF-RHF Final Energy:  -311.61030415787064
    Total Energy =                       -311.6103041578706438
 Dipole X            :          0.9874300           -0.3047486            0.6826814
 Dipole Y            :          6.1830876           -7.5580617           -1.3749740
 Dipole Z            :         12.4539531          -12.7719162           -0.3179631
 Magnitude           :                                                    1.5677079
  //            Monomer A HF           //
    Molecular point group: c1
  Multiplicity = 1
  Basis Set: AUG-CC-PVTZ
    Blend: AUG-CC-PVTZ
  Basis Set: (AUG-CC-PVTZ AUX)
    Blend: AUG-CC-PVTZ-JKFIT + DEF2-UNIVERSAL-JKFIT
  @DF-RHF Final Energy:    -7.23638489220026
    Total Energy =                         -7.2363848922002578
  //            Monomer B HF           //
    Molecular point group: c1

    Geometry (in Angstrom), charge = 0, multiplicity = 1:

       Center              X                  Y                   Z               Mass
    ------------   -----------------  -----------------  -----------------  -----------------
      Gh(LI)          0.000000000000     0.000000000000     0.000000000000     7.016003436600
         O           -0.398786000000    -1.589021000000    -1.083653000000    15.994914619570
         H            0.104594000000    -1.896182000000    -1.796161000000     1.007825032230
         H           -0.340299000000    -2.316178000000    -0.427544000000     1.007825032230
         O            1.473191000000    -0.539863000000     0.795211000000    15.994914619570
         H            2.355782000000    -0.467384000000     0.412253000000     1.007825032230
         H            1.505819000000    -1.406148000000     1.233169000000     1.007825032230
         O            0.501553000000     1.463017000000    -1.262223000000    15.994914619570
         H           -0.051961000000     1.314977000000    -2.033203000000     1.007825032230
         H            1.407051000000     1.606647000000    -1.681690000000     1.007825032230
         O           -1.690669000000     0.465935000000     0.912623000000    15.994914619570
         H           -1.690927000000     0.654825000000     1.943650000000     1.007825032230
         H           -2.533637000000     0.109345000000     0.695255000000     1.007825032230

  Charge       = 0
  Multiplicity = 1
  Basis Set: AUG-CC-PVTZ
    Blend: AUG-CC-PVTZ
  Basis Set: (AUG-CC-PVTZ AUX)
    Blend: AUG-CC-PVTZ-JKFIT + DEF2-UNIVERSAL-JKFIT

    Orbital Energies [Eh]
    ---------------------

    Doubly Occupied:

       1A    -20.540621     2A    -20.537648     3A    -20.535742
       4A    -20.535043     5A     -1.330756     6A     -1.320780
       7A     -1.304509     8A     -1.299900     9A     -0.693414
      10A     -0.679827    11A     -0.667525    12A     -0.660709
      13A     -0.565760    14A     -0.553437    15A     -0.542279
      16A     -0.528213    17A     -0.501291    18A     -0.469687
      19A     -0.467516    20A     -0.462854

  @DF-RHF Final Energy:  -304.20094180153978

   => Energetics <=

    Nuclear Repulsion Energy =            133.1054411425894841
    One-Electron Energy =                -686.2177350703165075
    Two-Electron Energy =                 248.9113521261872108
    Total Energy =                       -304.2009418015397841
 Dipole X            :          0.8914498           -0.3047486            0.5867012
 Dipole Y            :          6.3290094           -7.5580617           -1.2290523
 Dipole Z            :         12.5329989          -12.7719162           -0.2389173
 Magnitude           :                                                    1.3827036

    SAPT Results
  --------------------------------------------------------------------------------------------------------
    Electrostatics               -146.74764646 [mEh]     -92.08553841 [kcal/mol]    -385.28589271 [kJ/mol]
      Elst10,r                   -159.24203324 [mEh]     -99.92588448 [kcal/mol]    -418.08990068 [kJ/mol]
      Elst12,r                     12.49438678 [mEh]       7.84034607 [kcal/mol]      32.80400797 [kJ/mol]

    Exchange                       51.29974660 [mEh]      32.19107700 [kcal/mol]     134.68746616 [kJ/mol]
      Exch10                       48.20734750 [mEh]      30.25056726 [kcal/mol]     126.56837342 [kJ/mol]
      Exch10(S^2)                  47.58922825 [mEh]      29.86269158 [kcal/mol]     124.94550156 [kJ/mol]
      Exch11(S^2)                  -0.72277818 [mEh]      -0.45355015 [kcal/mol]      -1.89765384 [kJ/mol]
      Exch12(S^2)                   3.81517728 [mEh]       2.39405989 [kcal/mol]      10.01674657 [kJ/mol]

    Induction                     -68.27160600 [mEh]     -42.84107956 [kcal/mol]    -179.24707687 [kJ/mol]
      Ind20,r                     -86.31379762 [mEh]     -54.16272572 [kcal/mol]    -226.61684443 [kJ/mol]
      Ind22                        -9.50595771 [mEh]      -5.96507852 [kcal/mol]     -24.95788854 [kJ/mol]
      Exch-Ind20,r                 28.84824154 [mEh]      18.10254487 [kcal/mol]      75.74104773 [kJ/mol]
      Exch-Ind22                    3.17713010 [mEh]       1.99367924 [kcal/mol]       8.34155392 [kJ/mol]
      delta HF,r (2)               -4.47722231 [mEh]      -2.80949942 [kcal/mol]     -11.75494556 [kJ/mol]

    Dispersion                     -3.36599059 [mEh]      -2.11219098 [kcal/mol]      -8.83740707 [kJ/mol]
      Disp20                       -3.36656641 [mEh]      -2.11255232 [kcal/mol]      -8.83891889 [kJ/mol]
      Disp21                       -0.11601757 [mEh]      -0.07280213 [kcal/mol]      -0.30460410 [kJ/mol]
      Disp22 (SDQ)                 -0.04698097 [mEh]      -0.02948100 [kcal/mol]      -0.12334852 [kJ/mol]
      Disp22 (T)                   -0.18419652 [mEh]      -0.11558506 [kcal/mol]      -0.48360790 [kJ/mol]
      Est. Disp22 (T)              -0.21808417 [mEh]      -0.13684988 [kcal/mol]      -0.57257990 [kJ/mol]
      Exch-Disp20                   0.38165853 [mEh]       0.23949434 [kcal/mol]       1.00204434 [kJ/mol]

  Total HF                       -172.97746413 [mEh]    -108.54499749 [kcal/mol]    -454.15226951 [kJ/mol]
  Total SAPT0                    -175.96237201 [mEh]    -110.41805546 [kcal/mol]    -461.98914406 [kJ/mol]
  Total SAPT2                    -166.70441374 [mEh]    -104.60859894 [kcal/mol]    -437.68237797 [kJ/mol]
  Total SAPT2+                   -167.08549645 [mEh]    -104.84773195 [kcal/mol]    -438.68291049 [kJ/mol]

  Special recipe for scaled SAPT0 (see Manual):
    Electrostatics sSAPT0        -159.24203324 [mEh]     -99.92588448 [kcal/mol]    -418.08990068 [kJ/mol]
    Exchange sSAPT0                48.20734750 [mEh]      30.25056726 [kcal/mol]     126.56837342 [kJ/mol]
    Induction sSAPT0              -60.80401659 [mEh]     -38.15509645 [kcal/mol]    -159.64092356 [kJ/mol]
    Dispersion sSAPT0              -2.96984220 [mEh]      -1.86360412 [kcal/mol]      -7.79731963 [kJ/mol]
  Total sSAPT0                   -174.80854454 [mEh]    -109.69401779 [kcal/mol]    -458.95977045 [kJ/mol]
  --------------------------------------------------------------------------------------------------------

*** Psi4 exiting successfully. Buy a developer a beer!
