                               Psi4 1.9 release

  ==> Input File <==

--------------------------------------------------------------------------
MEMORY 60 GB

molecule dimer {
1 1
Li     0.000000     0.000000     0.000000
--
0 1
O      1.852804     0.610325     0.422366
H      2.273260     1.457225     0.600686
H      2.485926     0.051439    -0.025591
O     -1.159180     1.378186     0.408450
H     -1.049995     1.647269     1.320449
H     -1.096509     2.226849    -0.094508
O     -0.329423    -1.475069     1.145804
H     -0.434844    -2.362818     0.770701
H     -1.017858    -1.314900     1.802054
O      0.503397    -1.152424    -1.784085
H      0.322310    -0.760718    -2.631013
H      1.362436    -1.632825    -1.984484

units ang
no_reorient
no_com
symmetry c1
}

set {
basis        aug-cc-pVTZ
scf_type     df
}

energy("sapt2+")
--------------------------------------------------------------------------

  //              Dimer HF             //
    Molecular point group: c1
  Charge       = 1
  Multiplicity = 1
  Basis Set: AUG-CC-PVTZ
    Blend: AUG-CC-PVTZ
  Basis Set: (AUG-CC-PVTZ AUX)
    Blend: AUG-CC-PVTZ-JKFIT + DEF2-UNIVERSAL-JKFIT
  @DF-RHF Final Energy:  -311.62361825736946
    Total Energy =                       -311.6236182573694578
 Dipole X            :        -17.6671065           18.4919339            0.8248274
 Dipole Y            :         11.3094843          -10.9610446            0.3484397
 Dipole Z            :         -2.8182734            2.4539492           -0.3643242
 Magnitude           :                                                    0.9666864
  //            Monomer A HF           //
    Molecular point group: c1
  Multiplicity = 1
  Basis Set: AUG-CC-PVTZ
    Blend: AUG-CC-PVTZ
  Basis Set: (AUG-CC-PVTZ AUX)
    Blend: AUG-CC-PVTZ-JKFIT + DEF2-UNIVERSAL-JKFIT
  @DF-RHF Final Energy:    -7.23638483506245
    Total Energy =                         -7.2363848350624469
  //            Monomer B HF           //
    Molecular point group: c1

    Geometry (in Angstrom), charge = 0, multiplicity = 1:

       Center              X                  Y                   Z               Mass
    ------------   -----------------  -----------------  -----------------  -----------------
      Gh(LI)          0.000000000000     0.000000000000     0.000000000000     7.016003436600
         O            1.852804000000     0.610325000000     0.422366000000    15.994914619570
         H            2.273260000000     1.457225000000     0.600686000000     1.007825032230
         H            2.485926000000     0.051439000000    -0.025591000000     1.007825032230
         O           -1.159180000000     1.378186000000     0.408450000000    15.994914619570
         H           -1.049995000000     1.647269000000     1.320449000000     1.007825032230
         H           -1.096509000000     2.226849000000    -0.094508000000     1.007825032230
         O           -0.329423000000    -1.475069000000     1.145804000000    15.994914619570
         H           -0.434844000000    -2.362818000000     0.770701000000     1.007825032230
         H           -1.017858000000    -1.314900000000     1.802054000000     1.007825032230
         O            0.503397000000    -1.152424000000    -1.784085000000    15.994914619570
         H            0.322310000000    -0.760718000000    -2.631013000000     1.007825032230
         H            1.362436000000    -1.632825000000    -1.984484000000     1.007825032230

  Charge       = 0
  Multiplicity = 1
  Basis Set: AUG-CC-PVTZ
    Blend: AUG-CC-PVTZ
  Basis Set: (AUG-CC-PVTZ AUX)
    Blend: AUG-CC-PVTZ-JKFIT + DEF2-UNIVERSAL-JKFIT

    Orbital Energies [Eh]
    ---------------------

    Doubly Occupied:

       1A    -20.551540     2A    -20.536858     3A    -20.532297
       4A    -20.522195     5A     -1.326737     6A     -1.317280
       7A     -1.313461     8A     -1.301319     9A     -0.692300
      10A     -0.682100    11A     -0.678353    12A     -0.673465
      13A     -0.567920    14A     -0.550431    15A     -0.543957
      16A     -0.521076    17A     -0.492039    18A     -0.477440
      19A     -0.468001    20A     -0.461655

  @DF-RHF Final Energy:  -304.21371188686265

   => Energetics <=

    Nuclear Repulsion Energy =            131.3247176027595060
    One-Electron Energy =                -682.6560046037786833
    Two-Electron Energy =                 247.1175751141565229
    Total Energy =                       -304.2137118868626544
 Dipole X            :        -17.8243629           18.4919339            0.6675710
 Dipole Y            :         11.3382744          -10.9610446            0.3772298
 Dipole Z            :         -2.9014935            2.4539492           -0.4475443
 Magnitude           :                                                    0.8878340

    SAPT Results
  --------------------------------------------------------------------------------------------------------
    Electrostatics               -145.30502675 [mEh]     -91.18028087 [kcal/mol]    -381.49829517 [kJ/mol]
      Elst10,r                   -157.03418802 [mEh]     -98.54044069 [kcal/mol]    -412.29320385 [kJ/mol]
      Elst12,r                     11.72916127 [mEh]       7.36015982 [kcal/mol]      30.79490868 [kJ/mol]

    Exchange                       44.11430188 [mEh]      27.68214236 [kcal/mol]     115.82208363 [kJ/mol]
      Exch10                       41.11556272 [mEh]      25.80040513 [kcal/mol]     107.94889505 [kJ/mol]
      Exch10(S^2)                  40.66503714 [mEh]      25.51769606 [kcal/mol]     106.76604030 [kJ/mol]
      Exch11(S^2)                  -0.58007512 [mEh]      -0.36400264 [kcal/mol]      -1.52298703 [kJ/mol]
      Exch12(S^2)                   3.57881428 [mEh]       2.24573987 [kcal/mol]       9.39617560 [kJ/mol]

    Induction                     -63.58941003 [mEh]     -39.90295722 [kcal/mol]    -166.95397302 [kJ/mol]
      Ind20,r                     -79.63193645 [mEh]     -49.96979454 [kcal/mol]    -209.07362036 [kJ/mol]
      Ind22                        -8.87337524 [mEh]      -5.56812703 [kcal/mol]     -23.29704349 [kJ/mol]
      Exch-Ind20,r                 25.90755704 [mEh]      16.25723748 [kcal/mol]      68.02028163 [kJ/mol]
      Exch-Ind22                    2.88687536 [mEh]       1.81154164 [kcal/mol]       7.57949021 [kJ/mol]
      delta HF,r (2)               -3.87853072 [mEh]      -2.43381477 [kcal/mol]     -10.18308101 [kJ/mol]

    Dispersion                     -2.93103853 [mEh]      -1.83925445 [kcal/mol]      -7.69544060 [kJ/mol]
      Disp20                       -2.90312594 [mEh]      -1.82173903 [kcal/mol]      -7.62215612 [kJ/mol]
      Disp21                       -0.11333870 [mEh]      -0.07112111 [kcal/mol]      -0.29757071 [kJ/mol]
      Disp22 (SDQ)                 -0.04646670 [mEh]      -0.02915830 [kcal/mol]      -0.12199831 [kJ/mol]
      Disp22 (T)                   -0.17101004 [mEh]      -0.10731042 [kcal/mol]      -0.44898680 [kJ/mol]
      Est. Disp22 (T)              -0.19453851 [mEh]      -0.12207476 [kcal/mol]      -0.51076079 [kJ/mol]
      Exch-Disp20                   0.32643133 [mEh]       0.20483875 [kcal/mol]       0.85704533 [kJ/mol]

  Total HF                       -173.52153544 [mEh]    -108.88640740 [kcal/mol]    -455.58072854 [kJ/mol]
  Total SAPT0                    -176.09823006 [mEh]    -110.50330768 [kcal/mol]    -462.34583934 [kJ/mol]
  Total SAPT2                    -167.35682952 [mEh]    -105.01799602 [kcal/mol]    -439.39529536 [kJ/mol]
  Total SAPT2+                   -167.71117343 [mEh]    -105.24035018 [kcal/mol]    -440.32562517 [kJ/mol]

  Special recipe for scaled SAPT0 (see Manual):
    Electrostatics sSAPT0        -157.03418802 [mEh]     -98.54044069 [kcal/mol]    -412.29320385 [kJ/mol]
    Exchange sSAPT0                41.11556272 [mEh]      25.80040513 [kcal/mol]     107.94889505 [kJ/mol]
    Induction sSAPT0              -56.73225005 [mEh]     -35.60002437 [kcal/mol]    -148.95050198 [kJ/mol]
    Dispersion sSAPT0              -2.56572443 [mEh]      -1.61001639 [kcal/mol]      -6.73630857 [kJ/mol]
  Total sSAPT0                   -175.21659978 [mEh]    -109.95007633 [kcal/mol]    -460.03111935 [kJ/mol]
  --------------------------------------------------------------------------------------------------------

*** Psi4 exiting successfully. Buy a developer a beer!
