                               Psi4 1.9 release

  ==> Input File <==

--------------------------------------------------------------------------
MEMORY 60 GB

molecule dimer {
1 1
Li     0.000000     0.000000     0.000000
--
0 1
O     -1.054262     1.033472     1.093346
H     -1.730482     0.532374     1.562433
H     -1.571843     1.575637     0.505802
O     -0.744178    -1.532605    -0.783434
H     -0.277426    -1.988784    -1.466297
H     -1.469992    -1.214014    -1.334823
O      1.660220    -0.198584     0.829101
H      2.081802    -0.988587     0.338437
H      2.282426     0.471872     1.056824

units ang
no_reorient
no_com
symmetry c1
}

set {
basis        aug-cc-pVTZ
scf_type     df
}

energy("sapt2+")
--------------------------------------------------------------------------

  //              Dimer HF             //
    Molecular point group: c1
  Charge       = 1
  Multiplicity = 1
  Basis Set: AUG-CC-PVTZ
    Blend: AUG-CC-PVTZ
  Basis Set: (AUG-CC-PVTZ AUX)
    Blend: AUG-CC-PVTZ-JKFIT + DEF2-UNIVERSAL-JKFIT
  @DF-RHF Final Energy:  -235.52989284697622
    Total Energy =                       -235.5298928469762245
 Dipole X            :          3.0951492           -3.3850192           -0.2898700
 Dipole Y            :         13.3136014          -13.5932498           -0.2796483
 Dipole Z            :        -19.3503012           18.4710902           -0.8792110
 Magnitude           :                                                    0.9670780
  //            Monomer A HF           //
    Molecular point group: c1
  Multiplicity = 1
  Basis Set: AUG-CC-PVTZ
    Blend: AUG-CC-PVTZ
  Basis Set: (AUG-CC-PVTZ AUX)
    Blend: AUG-CC-PVTZ-JKFIT + DEF2-UNIVERSAL-JKFIT
  @DF-RHF Final Energy:    -7.23638456363032
    Total Energy =                         -7.2363845636303195
  //            Monomer B HF           //
    Molecular point group: c1

    Geometry (in Angstrom), charge = 0, multiplicity = 1:

       Center              X                  Y                   Z               Mass
    ------------   -----------------  -----------------  -----------------  -----------------
      Gh(LI)          0.000000000000     0.000000000000     0.000000000000     7.016003436600
         O           -1.054262000000     1.033472000000     1.093346000000    15.994914619570
         H           -1.730482000000     0.532374000000     1.562433000000     1.007825032230
         H           -1.571843000000     1.575637000000     0.505802000000     1.007825032230
         O           -0.744178000000    -1.532605000000    -0.783434000000    15.994914619570
         H           -0.277426000000    -1.988784000000    -1.466297000000     1.007825032230
         H           -1.469992000000    -1.214014000000    -1.334823000000     1.007825032230
         O            1.660220000000    -0.198584000000     0.829101000000    15.994914619570
         H            2.081802000000    -0.988587000000     0.338437000000     1.007825032230
         H            2.282426000000     0.471872000000     1.056824000000     1.007825032230

  Charge       = 0
  Multiplicity = 1
  Basis Set: AUG-CC-PVTZ
    Blend: AUG-CC-PVTZ
  Basis Set: (AUG-CC-PVTZ AUX)
    Blend: AUG-CC-PVTZ-JKFIT + DEF2-UNIVERSAL-JKFIT

    Orbital Energies [Eh]
    ---------------------

    Doubly Occupied:

       1A    -20.556060     2A    -20.539497     3A    -20.536742
       4A     -1.347450     5A     -1.326814     6A     -1.306867
       7A     -0.692616     8A     -0.688111     9A     -0.685429
      10A     -0.586412    11A     -0.562937    12A     -0.526535
      13A     -0.500111    14A     -0.479950    15A     -0.474003

  @DF-RHF Final Energy:  -228.16017835424702

   => Energetics <=

    Nuclear Repulsion Energy =             75.7662234455156494
    One-Electron Energy =                -466.2337348002239992
    Two-Electron Energy =                 162.3073330004613126
    Total Energy =                       -228.1601783542470230
 Dipole X            :          3.1330583           -3.3850192           -0.2519609
 Dipole Y            :         13.4622914          -13.5932498           -0.1309583
 Dipole Z            :        -19.4968607           18.4710902           -1.0257705
 Magnitude           :                                                    1.0643493

    SAPT Results
  --------------------------------------------------------------------------------------------------------
    Electrostatics               -123.18812922 [mEh]     -77.30171814 [kcal/mol]    -323.43038870 [kJ/mol]
      Elst10,r                   -131.23268605 [mEh]     -82.34975377 [kcal/mol]    -344.55136975 [kJ/mol]
      Elst12,r                      8.04455683 [mEh]       5.04803562 [kcal/mol]      21.12098105 [kJ/mol]

    Exchange                       54.36382471 [mEh]      34.11381504 [kcal/mol]     142.73220211 [kJ/mol]
      Exch10                       50.70826553 [mEh]      31.81991702 [kcal/mol]     133.13453280 [kJ/mol]
      Exch10(S^2)                  50.03118301 [mEh]      31.39504132 [kcal/mol]     131.35685289 [kJ/mol]
      Exch11(S^2)                  -0.64811611 [mEh]      -0.40669900 [kcal/mol]      -1.70162862 [kJ/mol]
      Exch12(S^2)                   4.30367530 [mEh]       2.70059702 [kcal/mol]      11.29929793 [kJ/mol]

    Induction                     -58.01650772 [mEh]     -36.40590823 [kcal/mol]    -152.32232003 [kJ/mol]
      Ind20,r                     -81.00026046 [mEh]     -50.82843082 [kcal/mol]    -212.66615454 [kJ/mol]
      Ind22                        -8.67137109 [mEh]      -5.44136751 [kcal/mol]     -22.76668167 [kJ/mol]
      Exch-Ind20,r                 32.32372669 [mEh]      20.28344473 [kcal/mol]      84.86593274 [kJ/mol]
      Exch-Ind22                    3.46037195 [mEh]       2.17141618 [kcal/mol]       9.08520531 [kJ/mol]
      delta HF,r (2)               -4.12897481 [mEh]      -2.59097081 [kcal/mol]     -10.84062186 [kJ/mol]

    Dispersion                     -2.98803674 [mEh]      -1.87502137 [kcal/mol]      -7.84508939 [kJ/mol]
      Disp20                       -2.97528913 [mEh]      -1.86702211 [kcal/mol]      -7.81162052 [kJ/mol]
      Disp21                       -0.13330020 [mEh]      -0.08364714 [kcal/mol]      -0.34997963 [kJ/mol]
      Disp22 (SDQ)                 -0.05160809 [mEh]      -0.03238457 [kcal/mol]      -0.13549703 [kJ/mol]
      Disp22 (T)                   -0.17619208 [mEh]      -0.11056220 [kcal/mol]      -0.46259225 [kJ/mol]
      Est. Disp22 (T)              -0.19890915 [mEh]      -0.12481737 [kcal/mol]      -0.52223589 [kJ/mol]
      Exch-Disp20                   0.37106982 [mEh]       0.23284983 [kcal/mol]       0.97424368 [kJ/mol]

  Total HF                       -133.32992910 [mEh]     -83.66579365 [kcal/mol]    -350.05768062 [kJ/mol]
  Total SAPT0                    -135.93414840 [mEh]     -85.29996593 [kcal/mol]    -356.89505746 [kJ/mol]
  Total SAPT2                    -129.44503153 [mEh]     -81.22798362 [kcal/mol]    -339.85788346 [kJ/mol]
  Total SAPT2+                   -129.82884897 [mEh]     -81.46883270 [kcal/mol]    -340.86559602 [kJ/mol]

  Special recipe for scaled SAPT0 (see Manual):
    Electrostatics sSAPT0        -131.23268605 [mEh]     -82.34975377 [kcal/mol]    -344.55136975 [kJ/mol]
    Exchange sSAPT0                50.70826553 [mEh]      31.81991702 [kcal/mol]     133.13453280 [kJ/mol]
    Induction sSAPT0              -51.47533703 [mEh]     -32.30126165 [kcal/mol]    -135.14847876 [kJ/mol]
    Dispersion sSAPT0              -2.58894920 [mEh]      -1.62459015 [kcal/mol]      -6.79728520 [kJ/mol]
  Total sSAPT0                   -134.58870676 [mEh]     -84.45568856 [kcal/mol]    -353.36260092 [kJ/mol]
  --------------------------------------------------------------------------------------------------------

*** Psi4 exiting successfully. Buy a developer a beer!
