                               Psi4 1.9 release

  ==> Input File <==

--------------------------------------------------------------------------
MEMORY 60 GB

molecule dimer {
1 1
Li     0.000000     0.000000     0.000000
--
0 1
O      0.284917     1.873038     0.598396
H     -0.265799     2.437262     1.203763
H      0.312342     2.308963    -0.239182
O      1.375746    -1.157772    -0.584152
H      2.185946    -1.587349    -0.474694
H      0.789827    -1.882919    -1.039732
O     -0.959321     0.359899    -1.687719
H     -1.273101     1.273988    -1.980653
H     -0.367583     0.108484    -2.390242
O     -0.285954    -0.870627     1.731899
H      0.387606    -1.563219     1.998960
H     -1.094979    -1.130535     2.143406

units ang
no_reorient
no_com
symmetry c1
}

set {
basis        aug-cc-pVTZ
scf_type     df
}

energy("sapt2+")
--------------------------------------------------------------------------

  //              Dimer HF             //
    Molecular point group: c1
  Charge       = 1
  Multiplicity = 1
  Basis Set: AUG-CC-PVTZ
    Blend: AUG-CC-PVTZ
  Basis Set: (AUG-CC-PVTZ AUX)
    Blend: AUG-CC-PVTZ-JKFIT + DEF2-UNIVERSAL-JKFIT
  @DF-RHF Final Energy:  -311.60846523103578
    Total Energy =                       -311.6084652310357797
 Dipole X            :         -7.5611561            7.5539213           -0.0072348
 Dipole Y            :         -3.3263713            3.0254118           -0.3009595
 Dipole Z            :          0.0259972           -0.5876708           -0.5616736
 Magnitude           :                                                    0.6372646
  //            Monomer A HF           //
    Molecular point group: c1
  Multiplicity = 1
  Basis Set: AUG-CC-PVTZ
    Blend: AUG-CC-PVTZ
  Basis Set: (AUG-CC-PVTZ AUX)
    Blend: AUG-CC-PVTZ-JKFIT + DEF2-UNIVERSAL-JKFIT
  @DF-RHF Final Energy:    -7.23638491287089
    Total Energy =                         -7.2363849128708919
  //            Monomer B HF           //
    Molecular point group: c1

    Geometry (in Angstrom), charge = 0, multiplicity = 1:

       Center              X                  Y                   Z               Mass
    ------------   -----------------  -----------------  -----------------  -----------------
      Gh(LI)          0.000000000000     0.000000000000     0.000000000000     7.016003436600
         O            0.284917000000     1.873038000000     0.598396000000    15.994914619570
         H           -0.265799000000     2.437262000000     1.203763000000     1.007825032230
         H            0.312342000000     2.308963000000    -0.239182000000     1.007825032230
         O            1.375746000000    -1.157772000000    -0.584152000000    15.994914619570
         H            2.185946000000    -1.587349000000    -0.474694000000     1.007825032230
         H            0.789827000000    -1.882919000000    -1.039732000000     1.007825032230
         O           -0.959321000000     0.359899000000    -1.687719000000    15.994914619570
         H           -1.273101000000     1.273988000000    -1.980653000000     1.007825032230
         H           -0.367583000000     0.108484000000    -2.390242000000     1.007825032230
         O           -0.285954000000    -0.870627000000     1.731899000000    15.994914619570
         H            0.387606000000    -1.563219000000     1.998960000000     1.007825032230
         H           -1.094979000000    -1.130535000000     2.143406000000     1.007825032230

  Charge       = 0
  Multiplicity = 1
  Basis Set: AUG-CC-PVTZ
    Blend: AUG-CC-PVTZ
  Basis Set: (AUG-CC-PVTZ AUX)
    Blend: AUG-CC-PVTZ-JKFIT + DEF2-UNIVERSAL-JKFIT

    Orbital Energies [Eh]
    ---------------------

    Doubly Occupied:

       1A    -20.549585     2A    -20.546852     3A    -20.530550
       4A    -20.527581     5A     -1.324682     6A     -1.320895
       7A     -1.307741     8A     -1.305461     9A     -0.687601
      10A     -0.677988    11A     -0.673893    12A     -0.672082
      13A     -0.564757    14A     -0.556219    15A     -0.541867
      16A     -0.526236    17A     -0.492639    18A     -0.487382
      19A     -0.464809    20A     -0.461790

  @DF-RHF Final Energy:  -304.20261471129788

   => Energetics <=

    Nuclear Repulsion Energy =            132.5117956194189901
    One-Electron Energy =                -684.9875908331501932
    Two-Electron Energy =                 248.2731805024333198
    Total Energy =                       -304.2026147112978833
 Dipole X            :         -7.6277526            7.5539213           -0.0738313
 Dipole Y            :         -3.3336026            3.0254118           -0.3081907
 Dipole Z            :          0.0426096           -0.5876708           -0.5450612
 Magnitude           :                                                    0.6304953

    SAPT Results
  --------------------------------------------------------------------------------------------------------
    Electrostatics               -137.16364785 [mEh]     -86.07148848 [kcal/mol]    -360.12310781 [kJ/mol]
      Elst10,r                   -148.99344372 [mEh]     -93.49479746 [kcal/mol]    -391.18223259 [kJ/mol]
      Elst12,r                     11.82979587 [mEh]       7.42330898 [kcal/mol]      31.05912478 [kJ/mol]

    Exchange                       40.95399147 [mEh]      25.69901763 [kcal/mol]     107.52468978 [kJ/mol]
      Exch10                       37.97459344 [mEh]      23.82941715 [kcal/mol]      99.70228135 [kJ/mol]
      Exch10(S^2)                  37.58723871 [mEh]      23.58634838 [kcal/mol]      98.68528163 [kJ/mol]
      Exch11(S^2)                  -0.58196680 [mEh]      -0.36518968 [kcal/mol]      -1.52795363 [kJ/mol]
      Exch12(S^2)                   3.56136483 [mEh]       2.23479017 [kcal/mol]       9.35036206 [kJ/mol]

    Induction                     -64.65944746 [mEh]     -40.57441585 [kcal/mol]    -169.76335592 [kJ/mol]
      Ind20,r                     -78.71936879 [mEh]     -49.39714968 [kcal/mol]    -206.67767428 [kJ/mol]
      Ind22                        -8.91464737 [mEh]      -5.59402568 [kcal/mol]     -23.40540345 [kJ/mol]
      Exch-Ind20,r                 23.85919504 [mEh]      14.97187092 [kcal/mol]      62.64230795 [kJ/mol]
      Exch-Ind22                    2.70195650 [mEh]       1.69550330 [kcal/mol]       7.09398582 [kJ/mol]
      delta HF,r (2)               -3.58658284 [mEh]      -2.25061471 [kcal/mol]      -9.41657196 [kJ/mol]

    Dispersion                     -2.94010827 [mEh]      -1.84494579 [kcal/mol]      -7.71925320 [kJ/mol]
      Disp20                       -2.90654358 [mEh]      -1.82388363 [kcal/mol]      -7.63112911 [kJ/mol]
      Disp21                       -0.10362949 [mEh]      -0.06502849 [kcal/mol]      -0.27207918 [kJ/mol]
      Disp22 (SDQ)                 -0.04700813 [mEh]      -0.02949805 [kcal/mol]      -0.12341982 [kJ/mol]
      Disp22 (T)                   -0.17161860 [mEh]      -0.10769230 [kcal/mol]      -0.45058457 [kJ/mol]
      Est. Disp22 (T)              -0.19612631 [mEh]      -0.12307112 [kcal/mol]      -0.51492955 [kJ/mol]
      Exch-Disp20                   0.31319923 [mEh]       0.19653549 [kcal/mol]       0.82230447 [kJ/mol]

  Total HF                       -169.46560687 [mEh]    -106.34127379 [kcal/mol]    -444.93188953 [kJ/mol]
  Total SAPT0                    -172.05895121 [mEh]    -107.96862193 [kcal/mol]    -451.74071417 [kJ/mol]
  Total SAPT2                    -163.46244819 [mEh]    -102.57423484 [kcal/mol]    -429.17059859 [kJ/mol]
  Total SAPT2+                   -163.80921211 [mEh]    -102.79183249 [kcal/mol]    -430.08102714 [kJ/mol]

  Special recipe for scaled SAPT0 (see Manual):
    Electrostatics sSAPT0        -148.99344372 [mEh]     -93.49479746 [kcal/mol]    -391.18223259 [kJ/mol]
    Exchange sSAPT0                37.97459344 [mEh]      23.82941715 [kcal/mol]      99.70228135 [kJ/mol]
    Induction sSAPT0              -57.70148697 [mEh]     -36.20822972 [kcal/mol]    -151.49523317 [kJ/mol]
    Dispersion sSAPT0              -2.58356120 [mEh]      -1.62120913 [kcal/mol]      -6.78313901 [kJ/mol]
  Total sSAPT0                   -171.30389845 [mEh]    -107.49481917 [kcal/mol]    -449.75832341 [kJ/mol]
  --------------------------------------------------------------------------------------------------------

*** Psi4 exiting successfully. Buy a developer a beer!
