                               Psi4 1.9 release

  ==> Input File <==

--------------------------------------------------------------------------
MEMORY 60 GB

molecule dimer {
1 1
Li     0.000000     0.000000     0.000000
--
0 1
O      0.430496    -1.782940     0.114535
H     -0.122461    -2.196776     0.778018
H      0.095863    -2.257410    -0.608199
O     -0.871002     0.606188     1.579229
H     -1.261790     1.443134     1.764322
H     -0.325521     0.477508     2.360804
O     -1.263445     0.240469    -1.487618
H     -1.400715    -0.414623    -2.199240
H     -1.655584     1.079449    -1.825628
O      1.839475     0.772754    -0.481884
H      2.223970     0.990559     0.396906
H      1.766020     1.624400    -0.919013

units ang
no_reorient
no_com
symmetry c1
}

set {
basis        aug-cc-pVTZ
scf_type     df
}

energy("sapt2+")
--------------------------------------------------------------------------

  //              Dimer HF             //
    Molecular point group: c1
  Charge       = 1
  Multiplicity = 1
  Basis Set: AUG-CC-PVTZ
    Blend: AUG-CC-PVTZ
  Basis Set: (AUG-CC-PVTZ AUX)
    Blend: AUG-CC-PVTZ-JKFIT + DEF2-UNIVERSAL-JKFIT
  @DF-RHF Final Energy:  -311.62002696936605
    Total Energy =                       -311.6200269693660516
 Dipole X            :         -1.4498171            0.7634002           -0.6864169
 Dipole Y            :          1.7653959           -1.0620091            0.7033868
 Dipole Z            :          4.7986015           -4.6448221            0.1537794
 Magnitude           :                                                    0.9947709
  //            Monomer A HF           //
    Molecular point group: c1
  Multiplicity = 1
  Basis Set: AUG-CC-PVTZ
    Blend: AUG-CC-PVTZ
  Basis Set: (AUG-CC-PVTZ AUX)
    Blend: AUG-CC-PVTZ-JKFIT + DEF2-UNIVERSAL-JKFIT
  @DF-RHF Final Energy:    -7.23638490693844
    Total Energy =                         -7.2363849069384418
  //            Monomer B HF           //
    Molecular point group: c1

    Geometry (in Angstrom), charge = 0, multiplicity = 1:

       Center              X                  Y                   Z               Mass
    ------------   -----------------  -----------------  -----------------  -----------------
      Gh(LI)          0.000000000000     0.000000000000     0.000000000000     7.016003436600
         O            0.430496000000    -1.782940000000     0.114535000000    15.994914619570
         H           -0.122461000000    -2.196776000000     0.778018000000     1.007825032230
         H            0.095863000000    -2.257410000000    -0.608199000000     1.007825032230
         O           -0.871002000000     0.606188000000     1.579229000000    15.994914619570
         H           -1.261790000000     1.443134000000     1.764322000000     1.007825032230
         H           -0.325521000000     0.477508000000     2.360804000000     1.007825032230
         O           -1.263445000000     0.240469000000    -1.487618000000    15.994914619570
         H           -1.400715000000    -0.414623000000    -2.199240000000     1.007825032230
         H           -1.655584000000     1.079449000000    -1.825628000000     1.007825032230
         O            1.839475000000     0.772754000000    -0.481884000000    15.994914619570
         H            2.223970000000     0.990559000000     0.396906000000     1.007825032230
         H            1.766020000000     1.624400000000    -0.919013000000     1.007825032230

  Charge       = 0
  Multiplicity = 1
  Basis Set: AUG-CC-PVTZ
    Blend: AUG-CC-PVTZ
  Basis Set: (AUG-CC-PVTZ AUX)
    Blend: AUG-CC-PVTZ-JKFIT + DEF2-UNIVERSAL-JKFIT

    Orbital Energies [Eh]
    ---------------------

    Doubly Occupied:

       1A    -20.545223     2A    -20.543097     3A    -20.531391
       4A    -20.525327     5A     -1.335196     6A     -1.326866
       7A     -1.315433     8A     -1.308360     9A     -0.691173
      10A     -0.682535    11A     -0.671027    12A     -0.667252
      13A     -0.572749    14A     -0.563759    15A     -0.545848
      16A     -0.537543    17A     -0.489435    18A     -0.481817
      19A     -0.470377    20A     -0.465115

  @DF-RHF Final Energy:  -304.21340951815756

   => Energetics <=

    Nuclear Repulsion Energy =            132.5517967332486080
    One-Electron Energy =                -684.9913625463435665
    Two-Electron Energy =                 248.2261562949374252
    Total Energy =                       -304.2134095181575617
 Dipole X            :         -1.4035931            0.7634002           -0.6401929
 Dipole Y            :          1.7669005           -1.0620091            0.7048914
 Dipole Z            :          4.8189504           -4.6448221            0.1741283
 Magnitude           :                                                    0.9680080

    SAPT Results
  --------------------------------------------------------------------------------------------------------
    Electrostatics               -144.69959481 [mEh]     -90.80036659 [kcal/mol]    -379.90873382 [kJ/mol]
      Elst10,r                   -155.70345809 [mEh]     -97.70539505 [kcal/mol]    -408.79937290 [kJ/mol]
      Elst12,r                     11.00386328 [mEh]       6.90502846 [kcal/mol]      28.89063907 [kJ/mol]

    Exchange                       48.95611448 [mEh]      30.72042564 [kcal/mol]     128.53426087 [kJ/mol]
      Exch10                       45.57081954 [mEh]      28.59612099 [kcal/mol]     119.64617022 [kJ/mol]
      Exch10(S^2)                  45.01755343 [mEh]      28.24894127 [kcal/mol]     118.19357026 [kJ/mol]
      Exch11(S^2)                  -0.69551764 [mEh]      -0.43644391 [kcal/mol]      -1.82608131 [kJ/mol]
      Exch12(S^2)                   4.08081258 [mEh]       2.56074856 [kcal/mol]      10.71417196 [kJ/mol]

    Induction                     -66.39150905 [mEh]     -41.66130091 [kcal/mol]    -174.31088299 [kJ/mol]
      Ind20,r                     -84.03271468 [mEh]     -52.73132457 [kcal/mol]    -220.62786200 [kJ/mol]
      Ind22                        -9.47427855 [mEh]      -5.94519955 [kcal/mol]     -24.87471491 [kJ/mol]
      Exch-Ind20,r                 28.22893981 [mEh]      17.71392716 [kcal/mol]      74.11507125 [kJ/mol]
      Exch-Ind22                    3.18267522 [mEh]       1.99715885 [kcal/mol]       8.35611265 [kJ/mol]
      delta HF,r (2)               -4.29613085 [mEh]      -2.69586281 [kcal/mol]     -11.27948999 [kJ/mol]

    Dispersion                     -3.22492740 [mEh]      -2.02367250 [kcal/mol]      -8.46704573 [kJ/mol]
      Disp20                       -3.20206343 [mEh]      -2.00932514 [kcal/mol]      -8.40701637 [kJ/mol]
      Disp21                       -0.12533541 [mEh]      -0.07864916 [kcal/mol]      -0.32906807 [kJ/mol]
      Disp22 (SDQ)                 -0.05379516 [mEh]      -0.03375697 [kcal/mol]      -0.14123917 [kJ/mol]
      Disp22 (T)                   -0.18664280 [mEh]      -0.11712013 [kcal/mol]      -0.49003061 [kJ/mol]
      Est. Disp22 (T)              -0.21354946 [mEh]      -0.13400431 [kcal/mol]      -0.56067402 [kJ/mol]
      Exch-Disp20                   0.36981605 [mEh]       0.23206308 [kcal/mol]       0.97095191 [kJ/mol]

  Total HF                       -170.23254427 [mEh]    -106.82253427 [kcal/mol]    -446.94548341 [kJ/mol]
  Total SAPT0                    -173.06479165 [mEh]    -108.59979634 [kcal/mol]    -454.38154787 [kJ/mol]
  Total SAPT2                    -164.96723675 [mEh]    -103.51850392 [kcal/mol]    -433.12142041 [kJ/mol]
  Total SAPT2+                   -165.35991677 [mEh]    -103.76491436 [kcal/mol]    -434.15240167 [kJ/mol]

  Special recipe for scaled SAPT0 (see Manual):
    Electrostatics sSAPT0        -155.70345809 [mEh]     -97.70539505 [kcal/mol]    -408.79937290 [kJ/mol]
    Exchange sSAPT0                45.57081954 [mEh]      28.59612099 [kcal/mol]     119.64617022 [kJ/mol]
    Induction sSAPT0              -59.04626014 [mEh]     -37.05208763 [kcal/mol]    -155.02593464 [kJ/mol]
    Dispersion sSAPT0              -2.81844399 [mEh]      -1.76860030 [kcal/mol]      -7.39982367 [kJ/mol]
  Total sSAPT0                   -171.99734268 [mEh]    -107.92996200 [kcal/mol]    -451.57896099 [kJ/mol]
  --------------------------------------------------------------------------------------------------------

*** Psi4 exiting successfully. Buy a developer a beer!
