                               Psi4 1.9 release

  ==> Input File <==

--------------------------------------------------------------------------
MEMORY 60 GB

molecule dimer {
1 1
Li     0.000000     0.000000     0.000000
--
0 1
O     -1.162740     1.014321     1.159155
H     -0.442200     0.986359     1.801023
H     -1.860620     0.437939     1.470678
O      1.767946     0.216161     0.641309
H      2.204606    -0.360946     0.000281
H      2.328164     0.028607     1.374471
O     -0.688386    -1.786161     0.152623
H     -1.542320    -1.770103    -0.317065
H     -0.023824    -2.188879    -0.406850
O      0.091354     1.071377    -1.593210
H     -0.332237     0.917174    -2.464800
H      0.896186     1.508063    -1.838482

units ang
no_reorient
no_com
symmetry c1
}

set {
basis        aug-cc-pVTZ
scf_type     df
}

energy("sapt2+")
--------------------------------------------------------------------------

  //              Dimer HF             //
    Molecular point group: c1
  Charge       = 1
  Multiplicity = 1
  Basis Set: AUG-CC-PVTZ
    Blend: AUG-CC-PVTZ
  Basis Set: (AUG-CC-PVTZ AUX)
    Blend: AUG-CC-PVTZ-JKFIT + DEF2-UNIVERSAL-JKFIT
  @DF-RHF Final Energy:  -311.60854841687245
    Total Energy =                       -311.6085484168724520
 Dipole X            :         -1.5924628            2.4436937            0.8512309
 Dipole Y            :         -7.8739151            6.9613693           -0.9125458
 Dipole Z            :         -5.4229433            4.7210499           -0.7018935
 Magnitude           :                                                    1.4317780
  //            Monomer A HF           //
    Molecular point group: c1
  Multiplicity = 1
  Basis Set: AUG-CC-PVTZ
    Blend: AUG-CC-PVTZ
  Basis Set: (AUG-CC-PVTZ AUX)
    Blend: AUG-CC-PVTZ-JKFIT + DEF2-UNIVERSAL-JKFIT
  @DF-RHF Final Energy:    -7.23638503693075
    Total Energy =                         -7.2363850369307468
  //            Monomer B HF           //
    Molecular point group: c1

    Geometry (in Angstrom), charge = 0, multiplicity = 1:

       Center              X                  Y                   Z               Mass
    ------------   -----------------  -----------------  -----------------  -----------------
      Gh(LI)          0.000000000000     0.000000000000     0.000000000000     7.016003436600
         O           -1.162740000000     1.014321000000     1.159155000000    15.994914619570
         H           -0.442200000000     0.986359000000     1.801023000000     1.007825032230
         H           -1.860620000000     0.437939000000     1.470678000000     1.007825032230
         O            1.767946000000     0.216161000000     0.641309000000    15.994914619570
         H            2.204606000000    -0.360946000000     0.000281000000     1.007825032230
         H            2.328164000000     0.028607000000     1.374471000000     1.007825032230
         O           -0.688386000000    -1.786161000000     0.152623000000    15.994914619570
         H           -1.542320000000    -1.770103000000    -0.317065000000     1.007825032230
         H           -0.023824000000    -2.188879000000    -0.406850000000     1.007825032230
         O            0.091354000000     1.071377000000    -1.593210000000    15.994914619570
         H           -0.332237000000     0.917174000000    -2.464800000000     1.007825032230
         H            0.896186000000     1.508063000000    -1.838482000000     1.007825032230

  Charge       = 0
  Multiplicity = 1
  Basis Set: AUG-CC-PVTZ
    Blend: AUG-CC-PVTZ
  Basis Set: (AUG-CC-PVTZ AUX)
    Blend: AUG-CC-PVTZ-JKFIT + DEF2-UNIVERSAL-JKFIT

    Orbital Energies [Eh]
    ---------------------

    Doubly Occupied:

       1A    -20.553802     2A    -20.543706     3A    -20.541870
       4A    -20.514202     5A     -1.346419     6A     -1.324949
       7A     -1.323866     8A     -1.298248     9A     -0.702382
      10A     -0.692415    11A     -0.680994    12A     -0.672470
      13A     -0.585583    14A     -0.558006    15A     -0.553177
      16A     -0.523131    17A     -0.500085    18A     -0.486742
      19A     -0.479616    20A     -0.452870

  @DF-RHF Final Energy:  -304.21890836226567

   => Energetics <=

    Nuclear Repulsion Energy =            134.8544496100207084
    One-Electron Energy =                -689.4776447553053913
    Two-Electron Energy =                 250.4042867830189607
    Total Energy =                       -304.2189083622656653
 Dipole X            :         -1.6269913            2.4436937            0.8167023
 Dipole Y            :         -7.8924616            6.9613693           -0.9310923
 Dipole Z            :         -5.4375898            4.7210499           -0.7165399
 Magnitude           :                                                    1.4308617

    SAPT Results
  --------------------------------------------------------------------------------------------------------
    Electrostatics               -130.74261848 [mEh]     -82.04223172 [kcal/mol]    -343.26469753 [kJ/mol]
      Elst10,r                   -139.94238009 [mEh]     -87.81516929 [kcal/mol]    -367.41866830 [kJ/mol]
      Elst12,r                      9.19976161 [mEh]       5.77293756 [kcal/mol]      24.15397077 [kJ/mol]

    Exchange                       52.49341544 [mEh]      32.94011550 [kcal/mol]     137.82144324 [kJ/mol]
      Exch10                       48.46625775 [mEh]      30.41303590 [kcal/mol]     127.24814220 [kJ/mol]
      Exch10(S^2)                  47.84099905 [mEh]      30.02068014 [kcal/mol]     125.60652569 [kJ/mol]
      Exch11(S^2)                  -0.82632860 [mEh]      -0.51852902 [kcal/mol]      -2.16952544 [kJ/mol]
      Exch12(S^2)                   4.85348628 [mEh]       3.04560862 [kcal/mol]      12.74282647 [kJ/mol]

    Induction                     -68.50251574 [mEh]     -42.98597761 [kcal/mol]    -179.85333030 [kJ/mol]
      Ind20,r                     -87.29922311 [mEh]     -54.78108955 [kcal/mol]    -229.20407869 [kJ/mol]
      Ind22                       -10.29036528 [mEh]      -6.45730170 [kcal/mol]     -27.01735033 [kJ/mol]
      Exch-Ind20,r                 30.25879538 [mEh]      18.98768076 [kcal/mol]      79.44445631 [kJ/mol]
      Exch-Ind22                    3.56674488 [mEh]       2.23816621 [kcal/mol]       9.36448740 [kJ/mol]
      delta HF,r (2)               -4.73846761 [mEh]      -2.97343332 [kcal/mol]     -12.44084500 [kJ/mol]

    Dispersion                     -3.46298089 [mEh]      -2.17305331 [kcal/mol]      -9.09205506 [kJ/mol]
      Disp20                       -3.43279970 [mEh]      -2.15411433 [kcal/mol]      -9.01281437 [kJ/mol]
      Disp21                       -0.13313860 [mEh]      -0.08354573 [kcal/mol]      -0.34955534 [kJ/mol]
      Disp22 (SDQ)                 -0.06474422 [mEh]      -0.04062761 [kcal/mol]      -0.16998592 [kJ/mol]
      Disp22 (T)                   -0.21106815 [mEh]      -0.13244726 [kcal/mol]      -0.55415934 [kJ/mol]
      Est. Disp22 (T)              -0.23468203 [mEh]      -0.14726520 [kcal/mol]      -0.61615760 [kJ/mol]
      Exch-Disp20                   0.40238366 [mEh]       0.25249956 [kcal/mol]       1.05645817 [kJ/mol]

  Total HF                       -153.25501768 [mEh]     -96.16897550 [kcal/mol]    -402.37099347 [kJ/mol]
  Total SAPT0                    -156.28543371 [mEh]     -98.07059027 [kcal/mol]    -410.32734967 [kJ/mol]
  Total SAPT2                    -149.78213482 [mEh]     -93.98970860 [kcal/mol]    -393.25294079 [kJ/mol]
  Total SAPT2+                   -150.21469967 [mEh]     -94.26114714 [kcal/mol]    -394.38863965 [kJ/mol]

  Special recipe for scaled SAPT0 (see Manual):
    Electrostatics sSAPT0        -139.94238009 [mEh]     -87.81516929 [kcal/mol]    -367.41866830 [kJ/mol]
    Exchange sSAPT0                48.46625775 [mEh]      30.41303590 [kcal/mol]     127.24814220 [kJ/mol]
    Induction sSAPT0              -60.57691863 [mEh]     -38.01259033 [kcal/mol]    -159.04467795 [kJ/mol]
    Dispersion sSAPT0              -3.01443206 [mEh]      -1.89158468 [kcal/mol]      -7.91439028 [kJ/mol]
  Total sSAPT0                   -155.06747302 [mEh]     -97.30630840 [kcal/mol]    -407.12959433 [kJ/mol]
  --------------------------------------------------------------------------------------------------------

*** Psi4 exiting successfully. Buy a developer a beer!
