                               Psi4 1.9 release

  ==> Input File <==

--------------------------------------------------------------------------
MEMORY 60 GB

molecule dimer {
1 1
Li     0.000000     0.000000     0.000000
--
0 1
O     -1.032842     0.396425    -1.658178
H     -1.279584     0.014094    -2.509117
H     -1.562276     1.236030    -1.642107
O     -0.418356     0.747917     1.594078
H      0.358018     0.959903     2.183691
H     -0.999293     1.461192     1.564220
O      1.442274     1.084928    -0.518287
H      1.966751     1.852884    -0.286094
H      1.473632     0.916597    -1.471009
O      0.031737    -1.911179     0.426641
H      0.902421    -2.258501     0.761336
H     -0.721623    -2.124603     0.942511

units ang
no_reorient
no_com
symmetry c1
}

set {
basis        aug-cc-pVTZ
scf_type     df
}

energy("sapt2+")
--------------------------------------------------------------------------

  //              Dimer HF             //
    Molecular point group: c1
  Charge       = 1
  Multiplicity = 1
  Basis Set: AUG-CC-PVTZ
    Blend: AUG-CC-PVTZ
  Basis Set: (AUG-CC-PVTZ AUX)
    Blend: AUG-CC-PVTZ-JKFIT + DEF2-UNIVERSAL-JKFIT
  @DF-RHF Final Energy:  -311.61742593170499
    Total Energy =                       -311.6174259317049859
 Dipole X            :         -0.5375312            0.6057517            0.0682205
 Dipole Y            :         -7.6440935            8.6971319            1.0530384
 Dipole Z            :          3.1196474           -3.2173286           -0.0976812
 Magnitude           :                                                    1.0597573
  //            Monomer A HF           //
    Molecular point group: c1
  Multiplicity = 1
  Basis Set: AUG-CC-PVTZ
    Blend: AUG-CC-PVTZ
  Basis Set: (AUG-CC-PVTZ AUX)
    Blend: AUG-CC-PVTZ-JKFIT + DEF2-UNIVERSAL-JKFIT
  @DF-RHF Final Energy:    -7.23638493042922
    Total Energy =                         -7.2363849304292209
  //            Monomer B HF           //
    Molecular point group: c1

    Geometry (in Angstrom), charge = 0, multiplicity = 1:

       Center              X                  Y                   Z               Mass
    ------------   -----------------  -----------------  -----------------  -----------------
      Gh(LI)          0.000000000000     0.000000000000     0.000000000000     7.016003436600
         O           -1.032842000000     0.396425000000    -1.658178000000    15.994914619570
         H           -1.279584000000     0.014094000000    -2.509117000000     1.007825032230
         H           -1.562276000000     1.236030000000    -1.642107000000     1.007825032230
         O           -0.418356000000     0.747917000000     1.594078000000    15.994914619570
         H            0.358018000000     0.959903000000     2.183691000000     1.007825032230
         H           -0.999293000000     1.461192000000     1.564220000000     1.007825032230
         O            1.442274000000     1.084928000000    -0.518287000000    15.994914619570
         H            1.966751000000     1.852884000000    -0.286094000000     1.007825032230
         H            1.473632000000     0.916597000000    -1.471009000000     1.007825032230
         O            0.031737000000    -1.911179000000     0.426641000000    15.994914619570
         H            0.902421000000    -2.258501000000     0.761336000000     1.007825032230
         H           -0.721623000000    -2.124603000000     0.942511000000     1.007825032230

  Charge       = 0
  Multiplicity = 1
  Basis Set: AUG-CC-PVTZ
    Blend: AUG-CC-PVTZ
  Basis Set: (AUG-CC-PVTZ AUX)
    Blend: AUG-CC-PVTZ-JKFIT + DEF2-UNIVERSAL-JKFIT

    Orbital Energies [Eh]
    ---------------------

    Doubly Occupied:

       1A    -20.547090     2A    -20.527147     3A    -20.526764
       4A    -20.518650     5A     -1.321271     6A     -1.314791
       7A     -1.308192     8A     -1.298003     9A     -0.693905
      10A     -0.690289    11A     -0.689268    12A     -0.677586
      13A     -0.562006    14A     -0.538875    15A     -0.530443
      16A     -0.514322    17A     -0.488822    18A     -0.472943
      19A     -0.459502    20A     -0.457896

  @DF-RHF Final Energy:  -304.20644897416622

   => Energetics <=

    Nuclear Repulsion Energy =            134.3017598428102701
    One-Electron Energy =                -688.7408777183828761
    Two-Electron Energy =                 250.2326689014063845
    Total Energy =                       -304.2064489741662214
 Dipole X            :         -0.5900875            0.6057517            0.0156642
 Dipole Y            :         -7.7970983            8.6971319            0.9000336
 Dipole Z            :          3.1033580           -3.2173286           -0.1139707
 Magnitude           :                                                    0.9073562

    SAPT Results
  --------------------------------------------------------------------------------------------------------
    Electrostatics               -147.67505802 [mEh]     -92.66749795 [kcal/mol]    -387.72081142 [kJ/mol]
      Elst10,r                   -160.37093986 [mEh]    -100.63428408 [kcal/mol]    -421.05384460 [kJ/mol]
      Elst12,r                     12.69588184 [mEh]       7.96678613 [kcal/mol]      33.33303317 [kJ/mol]

    Exchange                       51.41673971 [mEh]      32.26449128 [kcal/mol]     134.99463151 [kJ/mol]
      Exch10                       48.17724258 [mEh]      30.23167614 [kcal/mol]     126.48933298 [kJ/mol]
      Exch10(S^2)                  47.55839811 [mEh]      29.84334537 [kcal/mol]     124.86455704 [kJ/mol]
      Exch11(S^2)                  -0.76029938 [mEh]      -0.47709507 [kcal/mol]      -1.99616576 [kJ/mol]
      Exch12(S^2)                   3.99979651 [mEh]       2.50991020 [kcal/mol]      10.50146429 [kJ/mol]

    Induction                     -68.90392461 [mEh]     -43.23786547 [kcal/mol]    -180.90722913 [kJ/mol]
      Ind20,r                     -86.89221986 [mEh]     -54.52569116 [kcal/mol]    -228.13549181 [kJ/mol]
      Ind22                        -9.76040656 [mEh]      -6.12474759 [kcal/mol]     -25.62594390 [kJ/mol]
      Exch-Ind20,r                 28.97602877 [mEh]      18.18273257 [kcal/mol]      76.07655306 [kJ/mol]
      Exch-Ind22                    3.25481179 [mEh]       2.04242523 [kcal/mol]       8.54550717 [kJ/mol]
      delta HF,r (2)               -4.48213874 [mEh]      -2.81258452 [kcal/mol]     -11.76785365 [kJ/mol]

    Dispersion                     -3.41972595 [mEh]      -2.14591043 [kcal/mol]      -8.97848925 [kJ/mol]
      Disp20                       -3.41661798 [mEh]      -2.14396015 [kcal/mol]      -8.97032927 [kJ/mol]
      Disp21                       -0.11703963 [mEh]      -0.07344348 [kcal/mol]      -0.30728752 [kJ/mol]
      Disp22 (SDQ)                 -0.04922591 [mEh]      -0.03088973 [kcal/mol]      -0.12924262 [kJ/mol]
      Disp22 (T)                   -0.19535306 [mEh]      -0.12258589 [kcal/mol]      -0.51289938 [kJ/mol]
      Est. Disp22 (T)              -0.22409976 [mEh]      -0.14062472 [kcal/mol]      -0.58837385 [kJ/mol]
      Exch-Disp20                   0.38725734 [mEh]       0.24300765 [kcal/mol]       1.01674400 [kJ/mol]

  Total HF                       -174.59202711 [mEh]    -109.55815106 [kcal/mol]    -458.39130402 [kJ/mol]
  Total SAPT0                    -177.62138775 [mEh]    -111.45910356 [kcal/mol]    -466.34488929 [kJ/mol]
  Total SAPT2                    -168.19160356 [mEh]    -105.54182465 [kcal/mol]    -441.58699432 [kJ/mol]
  Total SAPT2+                   -168.58196887 [mEh]    -105.78678258 [kcal/mol]    -442.61189830 [kJ/mol]

  Special recipe for scaled SAPT0 (see Manual):
    Electrostatics sSAPT0        -160.37093986 [mEh]    -100.63428408 [kcal/mol]    -421.05384460 [kJ/mol]
    Exchange sSAPT0                48.17724258 [mEh]      30.23167614 [kcal/mol]     126.48933298 [kJ/mol]
    Induction sSAPT0              -61.25241238 [mEh]     -38.43646906 [kcal/mol]    -160.81818655 [kJ/mol]
    Dispersion sSAPT0              -3.01404574 [mEh]      -1.89134226 [kcal/mol]      -7.91337601 [kJ/mol]
  Total sSAPT0                   -176.46015540 [mEh]    -110.73041926 [kcal/mol]    -463.29607418 [kJ/mol]
  --------------------------------------------------------------------------------------------------------

*** Psi4 exiting successfully. Buy a developer a beer!
