                               Psi4 1.9 release

  ==> Input File <==

--------------------------------------------------------------------------
MEMORY 60 GB

molecule dimer {
1 1
Li     0.000000     0.000000     0.000000
--
0 1
O      1.639321    -0.729901    -0.741028
H      2.317640    -0.292230    -0.190534
H      1.830515    -0.437536    -1.637740
O     -1.213233    -0.784151    -1.126646
H     -2.144486    -0.625012    -0.756992
H     -1.331930    -0.459099    -2.088330
O      0.356812     1.866213     0.273167
H      0.727568     1.761017     1.166760
H     -0.181844     2.672161     0.214819
O     -0.385442    -0.624008     1.841742
H     -1.072760     0.019128     2.225122
H      0.268191    -0.695409     2.554002

units ang
no_reorient
no_com
symmetry c1
}

set {
basis        aug-cc-pVTZ
scf_type     df
}

energy("sapt2+")
--------------------------------------------------------------------------

  //              Dimer HF             //
    Molecular point group: c1
  Charge       = 1
  Multiplicity = 1
  Basis Set: AUG-CC-PVTZ
    Blend: AUG-CC-PVTZ
  Basis Set: (AUG-CC-PVTZ AUX)
    Blend: AUG-CC-PVTZ-JKFIT + DEF2-UNIVERSAL-JKFIT
  @DF-RHF Final Energy:  -311.60150373900063
    Total Energy =                       -311.6015037390006341
 Dipole X            :         -7.0249467            6.7889507           -0.2359960
 Dipole Y            :          2.0528093           -0.4379554            1.6148540
 Dipole Z            :         -5.8702625            6.5478765            0.6776139
 Magnitude           :                                                    1.7670903
  //            Monomer A HF           //
    Molecular point group: c1
  Multiplicity = 1
  Basis Set: AUG-CC-PVTZ
    Blend: AUG-CC-PVTZ
  Basis Set: (AUG-CC-PVTZ AUX)
    Blend: AUG-CC-PVTZ-JKFIT + DEF2-UNIVERSAL-JKFIT
  @DF-RHF Final Energy:    -7.23638495297117
    Total Energy =                         -7.2363849529711706
  //            Monomer B HF           //
    Molecular point group: c1

    Geometry (in Angstrom), charge = 0, multiplicity = 1:

       Center              X                  Y                   Z               Mass
    ------------   -----------------  -----------------  -----------------  -----------------
      Gh(LI)          0.000000000000     0.000000000000     0.000000000000     7.016003436600
         O            1.639321000000    -0.729901000000    -0.741028000000    15.994914619570
         H            2.317640000000    -0.292230000000    -0.190534000000     1.007825032230
         H            1.830515000000    -0.437536000000    -1.637740000000     1.007825032230
         O           -1.213233000000    -0.784151000000    -1.126646000000    15.994914619570
         H           -2.144486000000    -0.625012000000    -0.756992000000     1.007825032230
         H           -1.331930000000    -0.459099000000    -2.088330000000     1.007825032230
         O            0.356812000000     1.866213000000     0.273167000000    15.994914619570
         H            0.727568000000     1.761017000000     1.166760000000     1.007825032230
         H           -0.181844000000     2.672161000000     0.214819000000     1.007825032230
         O           -0.385442000000    -0.624008000000     1.841742000000    15.994914619570
         H           -1.072760000000     0.019128000000     2.225122000000     1.007825032230
         H            0.268191000000    -0.695409000000     2.554002000000     1.007825032230

  Charge       = 0
  Multiplicity = 1
  Basis Set: AUG-CC-PVTZ
    Blend: AUG-CC-PVTZ
  Basis Set: (AUG-CC-PVTZ AUX)
    Blend: AUG-CC-PVTZ-JKFIT + DEF2-UNIVERSAL-JKFIT

    Orbital Energies [Eh]
    ---------------------

    Doubly Occupied:

       1A    -20.554339     2A    -20.548220     3A    -20.540474
       4A    -20.525612     5A     -1.324969     6A     -1.317978
       7A     -1.304613     8A     -1.287789     9A     -0.704387
      10A     -0.677984    11A     -0.669541    12A     -0.640509
      13A     -0.564100    14A     -0.550556    15A     -0.544341
      16A     -0.526159    17A     -0.500354    18A     -0.477564
      19A     -0.469081    20A     -0.459194

  @DF-RHF Final Energy:  -304.19882917659464

   => Energetics <=

    Nuclear Repulsion Energy =            133.1939142404214920
    One-Electron Energy =                -686.4099492493451180
    Two-Electron Energy =                 249.0172058323290116
    Total Energy =                       -304.1988291765946428
 Dipole X            :         -7.0319737            6.7889507           -0.2430230
 Dipole Y            :          1.9618579           -0.4379554            1.5239025
 Dipole Z            :         -5.9034710            6.5478765            0.6444054
 Magnitude           :                                                    1.6723030

    SAPT Results
  --------------------------------------------------------------------------------------------------------
    Electrostatics               -141.75787314 [mEh]     -88.95440838 [kcal/mol]    -372.18524465 [kJ/mol]
      Elst10,r                   -152.59575334 [mEh]     -95.75528088 [kcal/mol]    -400.64009520 [kJ/mol]
      Elst12,r                     10.83788020 [mEh]       6.80087250 [kcal/mol]      28.45485055 [kJ/mol]

    Exchange                       52.59643232 [mEh]      33.00475957 [kcal/mol]     138.09191403 [kJ/mol]
      Exch10                       48.84204198 [mEh]      30.64884406 [kcal/mol]     128.23476355 [kJ/mol]
      Exch10(S^2)                  48.20762755 [mEh]      30.25074299 [kcal/mol]     126.56910868 [kJ/mol]
      Exch11(S^2)                  -0.78246422 [mEh]      -0.49100371 [kcal/mol]      -2.05435953 [kJ/mol]
      Exch12(S^2)                   4.53685456 [mEh]       2.84691922 [kcal/mol]      11.91151000 [kJ/mol]

    Induction                     -69.26966817 [mEh]     -43.46737302 [kcal/mol]    -181.86748872 [kJ/mol]
      Ind20,r                     -88.16813607 [mEh]     -55.32634067 [kcal/mol]    -231.48540937 [kJ/mol]
      Ind22                       -10.24975047 [mEh]      -6.43181552 [kcal/mol]     -26.91071615 [kJ/mol]
      Exch-Ind20,r                 30.24438858 [mEh]      18.97864036 [kcal/mol]      79.40663129 [kJ/mol]
      Exch-Ind22                    3.51598037 [mEh]       2.20631099 [kcal/mol]       9.23120520 [kJ/mol]
      delta HF,r (2)               -4.61215059 [mEh]      -2.89416819 [kcal/mol]     -12.10919970 [kJ/mol]

    Dispersion                     -3.42766479 [mEh]      -2.15089213 [kcal/mol]      -8.99933265 [kJ/mol]
      Disp20                       -3.41299796 [mEh]      -2.14168855 [kcal/mol]      -8.96082490 [kJ/mol]
      Disp21                       -0.12162167 [mEh]      -0.07631875 [kcal/mol]      -0.31931765 [kJ/mol]
      Disp22 (SDQ)                 -0.06000795 [mEh]      -0.03765556 [kcal/mol]      -0.15755086 [kJ/mol]
      Disp22 (T)                   -0.20150760 [mEh]      -0.12644793 [kcal/mol]      -0.52905814 [kJ/mol]
      Est. Disp22 (T)              -0.23121488 [mEh]      -0.14508953 [kcal/mol]      -0.60705459 [kJ/mol]
      Exch-Disp20                   0.39817768 [mEh]       0.24986026 [kcal/mol]       1.04541535 [kJ/mol]

  Total HF                       -166.28960943 [mEh]    -104.34830531 [kcal/mol]    -436.59330942 [kJ/mol]
  Total SAPT0                    -169.30442972 [mEh]    -106.24013360 [kcal/mol]    -444.50871898 [kJ/mol]
  Total SAPT2                    -161.44592927 [mEh]    -101.30885012 [kcal/mol]    -423.87622891 [kJ/mol]
  Total SAPT2+                   -161.85877378 [mEh]    -101.56791396 [kcal/mol]    -424.96015200 [kJ/mol]

  Special recipe for scaled SAPT0 (see Manual):
    Electrostatics sSAPT0        -152.59575334 [mEh]     -95.75528088 [kcal/mol]    -400.64009520 [kJ/mol]
    Exchange sSAPT0                48.84204198 [mEh]      30.64884406 [kcal/mol]     128.23476355 [kJ/mol]
    Induction sSAPT0              -61.32606303 [mEh]     -38.48268554 [kcal/mol]    -161.01155631 [kJ/mol]
    Dispersion sSAPT0              -2.99889239 [mEh]      -1.88183339 [kcal/mol]      -7.87359089 [kJ/mol]
  Total sSAPT0                   -168.07866679 [mEh]    -105.47095575 [kcal/mol]    -441.29047885 [kJ/mol]
  --------------------------------------------------------------------------------------------------------

*** Psi4 exiting successfully. Buy a developer a beer!
