                               Psi4 1.9 release

  ==> Input File <==

--------------------------------------------------------------------------
MEMORY 60 GB

molecule dimer {
1 1
Li     0.000000     0.000000     0.000000
--
0 1
O      0.552963    -1.749645     0.131307
H      1.284114    -2.048599    -0.399136
H      0.552090    -2.127656     1.036364
O      1.541907     1.226823    -0.519578
H      1.551480     2.047459     0.018367
H      1.441348     1.555636    -1.465228
O     -0.063798     0.553262     1.985834
H      0.380477     1.157738     2.576072
H     -0.932985     0.385820     2.447181
O     -1.255138     0.486686    -1.137426
H     -1.106484     0.045005    -1.941916
H     -1.576557     1.362913    -1.297025

units ang
no_reorient
no_com
symmetry c1
}

set {
basis        aug-cc-pVTZ
scf_type     df
}

energy("sapt2+")
--------------------------------------------------------------------------

  //              Dimer HF             //
    Molecular point group: c1
  Charge       = 1
  Multiplicity = 1
  Basis Set: AUG-CC-PVTZ
    Blend: AUG-CC-PVTZ
  Basis Set: (AUG-CC-PVTZ AUX)
    Blend: AUG-CC-PVTZ-JKFIT + DEF2-UNIVERSAL-JKFIT
  @DF-RHF Final Energy:  -311.61851490995804
    Total Energy =                       -311.6185149099580372
 Dipole X            :        -14.6187880           14.7416685            0.1228805
 Dipole Y            :        -11.3610860           12.3121780            0.9510920
 Dipole Z            :         -8.6996665            8.7981397            0.0984731
 Magnitude           :                                                    0.9640397
  //            Monomer A HF           //
    Molecular point group: c1
  Multiplicity = 1
  Basis Set: AUG-CC-PVTZ
    Blend: AUG-CC-PVTZ
  Basis Set: (AUG-CC-PVTZ AUX)
    Blend: AUG-CC-PVTZ-JKFIT + DEF2-UNIVERSAL-JKFIT
  @DF-RHF Final Energy:    -7.23638488449566
    Total Energy =                         -7.2363848844956626
  //            Monomer B HF           //
    Molecular point group: c1

    Geometry (in Angstrom), charge = 0, multiplicity = 1:

       Center              X                  Y                   Z               Mass
    ------------   -----------------  -----------------  -----------------  -----------------
      Gh(LI)          0.000000000000     0.000000000000     0.000000000000     7.016003436600
         O            0.552963000000    -1.749645000000     0.131307000000    15.994914619570
         H            1.284114000000    -2.048599000000    -0.399136000000     1.007825032230
         H            0.552090000000    -2.127656000000     1.036364000000     1.007825032230
         O            1.541907000000     1.226823000000    -0.519578000000    15.994914619570
         H            1.551480000000     2.047459000000     0.018367000000     1.007825032230
         H            1.441348000000     1.555636000000    -1.465228000000     1.007825032230
         O           -0.063798000000     0.553262000000     1.985834000000    15.994914619570
         H            0.380477000000     1.157738000000     2.576072000000     1.007825032230
         H           -0.932985000000     0.385820000000     2.447181000000     1.007825032230
         O           -1.255138000000     0.486686000000    -1.137426000000    15.994914619570
         H           -1.106484000000     0.045005000000    -1.941916000000     1.007825032230
         H           -1.576557000000     1.362913000000    -1.297025000000     1.007825032230

  Charge       = 0
  Multiplicity = 1
  Basis Set: AUG-CC-PVTZ
    Blend: AUG-CC-PVTZ
  Basis Set: (AUG-CC-PVTZ AUX)
    Blend: AUG-CC-PVTZ-JKFIT + DEF2-UNIVERSAL-JKFIT

    Orbital Energies [Eh]
    ---------------------

    Doubly Occupied:

       1A    -20.546339     2A    -20.539546     3A    -20.527032
       4A    -20.521048     5A     -1.326682     6A     -1.321325
       7A     -1.302728     8A     -1.300344     9A     -0.706920
      10A     -0.687324    11A     -0.680762    12A     -0.664765
      13A     -0.562377    14A     -0.542352    15A     -0.540165
      16A     -0.518455    17A     -0.491208    18A     -0.483148
      19A     -0.460994    20A     -0.458599

  @DF-RHF Final Energy:  -304.20924562815185

   => Energetics <=

    Nuclear Repulsion Energy =            133.5171008848334679
    One-Electron Energy =                -687.0884578491593402
    Two-Electron Energy =                 249.3621113361740527
    Total Energy =                       -304.2092456281518480
 Dipole X            :        -14.7182754           14.7416685            0.0233931
 Dipole Y            :        -11.4835877           12.3121780            0.8285903
 Dipole Z            :         -8.7296012            8.7981397            0.0685385
 Magnitude           :                                                    0.8317491

    SAPT Results
  --------------------------------------------------------------------------------------------------------
    Electrostatics               -150.79153002 [mEh]     -94.62311365 [kcal/mol]    -395.90310753 [kJ/mol]
      Elst10,r                   -163.19605293 [mEh]    -102.40706930 [kcal/mol]    -428.47117795 [kJ/mol]
      Elst12,r                     12.40452291 [mEh]       7.78395564 [kcal/mol]      32.56807042 [kJ/mol]

    Exchange                       55.59926404 [mEh]      34.88906492 [kcal/mol]     145.97584763 [kJ/mol]
      Exch10                       52.31628144 [mEh]      32.82896223 [kcal/mol]     137.35637799 [kJ/mol]
      Exch10(S^2)                  51.59229896 [mEh]      32.37465637 [kcal/mol]     135.45556226 [kJ/mol]
      Exch11(S^2)                  -0.78410605 [mEh]      -0.49203398 [kcal/mol]      -2.05867015 [kJ/mol]
      Exch12(S^2)                   4.06708865 [mEh]       2.55213666 [kcal/mol]      10.67813979 [kJ/mol]

    Induction                     -68.32797321 [mEh]     -42.87645051 [kcal/mol]    -179.39506895 [kJ/mol]
      Ind20,r                     -88.54914712 [mEh]     -55.56542871 [kcal/mol]    -232.48575372 [kJ/mol]
      Ind22                        -9.77387965 [mEh]      -6.13320207 [kcal/mol]     -25.66131747 [kJ/mol]
      Exch-Ind20,r                 31.26104462 [mEh]      19.61660166 [kcal/mol]      82.07586135 [kJ/mol]
      Exch-Ind22                    3.45053225 [mEh]       2.16524168 [kcal/mol]       9.05937117 [kJ/mol]
      delta HF,r (2)               -4.71652332 [mEh]      -2.95966307 [kcal/mol]     -12.38323027 [kJ/mol]

    Dispersion                     -3.47890298 [mEh]      -2.18304458 [kcal/mol]      -9.13385850 [kJ/mol]
      Disp20                       -3.48425722 [mEh]      -2.18640442 [kcal/mol]      -9.14791608 [kJ/mol]
      Disp21                       -0.12887347 [mEh]      -0.08086932 [kcal/mol]      -0.33835725 [kJ/mol]
      Disp22 (SDQ)                 -0.04918883 [mEh]      -0.03086646 [kcal/mol]      -0.12914527 [kJ/mol]
      Disp22 (T)                   -0.19899126 [mEh]      -0.12486890 [kcal/mol]      -0.52245149 [kJ/mol]
      Est. Disp22 (T)              -0.22754114 [mEh]      -0.14278422 [kcal/mol]      -0.59740919 [kJ/mol]
      Exch-Disp20                   0.41095770 [mEh]       0.25787985 [kcal/mol]       1.07896928 [kJ/mol]

  Total HF                       -172.88439731 [mEh]    -108.48659718 [kcal/mol]    -453.90792260 [kJ/mol]
  Total SAPT0                    -175.95769684 [mEh]    -110.41512175 [kcal/mol]    -461.97686940 [kJ/mol]
  Total SAPT2                    -166.59353872 [mEh]    -104.53902382 [kcal/mol]    -437.39127564 [kJ/mol]
  Total SAPT2+                   -166.99914217 [mEh]    -104.79354382 [kcal/mol]    -438.45618735 [kJ/mol]

  Special recipe for scaled SAPT0 (see Manual):
    Electrostatics sSAPT0        -163.19605293 [mEh]    -102.40706930 [kcal/mol]    -428.47117795 [kJ/mol]
    Exchange sSAPT0                52.31628144 [mEh]      32.82896223 [kcal/mol]     137.35637799 [kJ/mol]
    Induction sSAPT0              -60.67003536 [mEh]     -38.07102196 [kcal/mol]    -159.28915590 [kJ/mol]
    Dispersion sSAPT0              -3.05575500 [mEh]      -1.91751521 [kcal/mol]      -8.02288365 [kJ/mol]
  Total sSAPT0                   -174.60556186 [mEh]    -109.56664424 [kcal/mol]    -458.42683950 [kJ/mol]
  --------------------------------------------------------------------------------------------------------

*** Psi4 exiting successfully. Buy a developer a beer!
