                               Psi4 1.9 release

  ==> Input File <==

--------------------------------------------------------------------------
MEMORY 60 GB

molecule dimer {
1 1
Li     0.000000     0.000000     0.000000
--
0 1
O     -0.815512    -1.973069     0.213618
H     -1.442123    -2.343453     0.881888
H     -0.002592    -2.481571     0.216923
O      1.699625     0.035978    -1.109364
H      2.234679    -0.288064    -0.379152
H      2.152471     0.871850    -1.472594
O      0.954529     0.704439     1.627529
H      0.792200     1.656184     1.570414
H      0.354105     0.450627     2.342875
O     -1.562320     1.135689    -0.344199
H     -1.999637     1.483420     0.437688
H     -1.205724     1.935640    -0.797850

units ang
no_reorient
no_com
symmetry c1
}

set {
basis        aug-cc-pVTZ
scf_type     df
}

energy("sapt2+")
--------------------------------------------------------------------------

  //              Dimer HF             //
    Molecular point group: c1
  Charge       = 1
  Multiplicity = 1
  Basis Set: AUG-CC-PVTZ
    Blend: AUG-CC-PVTZ
  Basis Set: (AUG-CC-PVTZ AUX)
    Blend: AUG-CC-PVTZ-JKFIT + DEF2-UNIVERSAL-JKFIT
  @DF-RHF Final Energy:  -311.60627461238397
    Total Energy =                       -311.6062746123839702
 Dipole X            :         -5.6168614            5.8467276            0.2298662
 Dipole Y            :          0.0472893            0.9617364            1.0090257
 Dipole Z            :         -9.7267691           11.1510169            1.4242477
 Magnitude           :                                                    1.7605263
  //            Monomer A HF           //
    Molecular point group: c1
  Multiplicity = 1
  Basis Set: AUG-CC-PVTZ
    Blend: AUG-CC-PVTZ
  Basis Set: (AUG-CC-PVTZ AUX)
    Blend: AUG-CC-PVTZ-JKFIT + DEF2-UNIVERSAL-JKFIT
  @DF-RHF Final Energy:    -7.23638479507763
    Total Energy =                         -7.2363847950776270
  //            Monomer B HF           //
    Molecular point group: c1

    Geometry (in Angstrom), charge = 0, multiplicity = 1:

       Center              X                  Y                   Z               Mass
    ------------   -----------------  -----------------  -----------------  -----------------
      Gh(LI)          0.000000000000     0.000000000000     0.000000000000     7.016003436600
         O           -0.815512000000    -1.973069000000     0.213618000000    15.994914619570
         H           -1.442123000000    -2.343453000000     0.881888000000     1.007825032230
         H           -0.002592000000    -2.481571000000     0.216923000000     1.007825032230
         O            1.699625000000     0.035978000000    -1.109364000000    15.994914619570
         H            2.234679000000    -0.288064000000    -0.379152000000     1.007825032230
         H            2.152471000000     0.871850000000    -1.472594000000     1.007825032230
         O            0.954529000000     0.704439000000     1.627529000000    15.994914619570
         H            0.792200000000     1.656184000000     1.570414000000     1.007825032230
         H            0.354105000000     0.450627000000     2.342875000000     1.007825032230
         O           -1.562320000000     1.135689000000    -0.344199000000    15.994914619570
         H           -1.999637000000     1.483420000000     0.437688000000     1.007825032230
         H           -1.205724000000     1.935640000000    -0.797850000000     1.007825032230

  Charge       = 0
  Multiplicity = 1
  Basis Set: AUG-CC-PVTZ
    Blend: AUG-CC-PVTZ
  Basis Set: (AUG-CC-PVTZ AUX)
    Blend: AUG-CC-PVTZ-JKFIT + DEF2-UNIVERSAL-JKFIT

    Orbital Energies [Eh]
    ---------------------

    Doubly Occupied:

       1A    -20.554989     2A    -20.546419     3A    -20.539815
       4A    -20.539343     5A     -1.336954     6A     -1.322195
       7A     -1.314219     8A     -1.305111     9A     -0.692848
      10A     -0.691083    11A     -0.685151    12A     -0.676166
      13A     -0.577905    14A     -0.559165    15A     -0.541566
      16A     -0.537214    17A     -0.505126    18A     -0.478304
      19A     -0.478067    20A     -0.471362

  @DF-RHF Final Energy:  -304.21555167942529

   => Energetics <=

    Nuclear Repulsion Energy =            129.0045621564671592
    One-Electron Energy =                -677.7342157357905990
    Two-Electron Energy =                 244.5141018998981508
    Total Energy =                       -304.2155516794252890
 Dipole X            :         -5.6705470            5.8467276            0.1761806
 Dipole Y            :         -0.0700439            0.9617364            0.8916925
 Dipole Z            :         -9.8679671           11.1510169            1.2830498
 Magnitude           :                                                    1.5723778

    SAPT Results
  --------------------------------------------------------------------------------------------------------
    Electrostatics               -125.21025006 [mEh]     -78.57061812 [kcal/mol]    -328.73946623 [kJ/mol]
      Elst10,r                   -133.26717178 [mEh]     -83.62641284 [kcal/mol]    -349.89291131 [kJ/mol]
      Elst12,r                      8.05692173 [mEh]       5.05579471 [kcal/mol]      21.15344508 [kJ/mol]

    Exchange                       35.59297864 [mEh]      22.33493129 [kcal/mol]      93.44935253 [kJ/mol]
      Exch10                       32.30500932 [mEh]      20.27169940 [kcal/mol]      84.81679030 [kJ/mol]
      Exch10(S^2)                  32.02602698 [mEh]      20.09663533 [kcal/mol]      84.08432224 [kJ/mol]
      Exch11(S^2)                  -0.47450236 [mEh]      -0.29775473 [kcal/mol]      -1.24580579 [kJ/mol]
      Exch12(S^2)                   3.76247168 [mEh]       2.36098662 [kcal/mol]       9.87836802 [kJ/mol]

    Induction                     -59.38729179 [mEh]     -37.26608822 [kcal/mol]    -155.92131310 [kJ/mol]
      Ind20,r                     -72.19710367 [mEh]     -45.30436653 [kcal/mol]    -189.55346958 [kJ/mol]
      Ind22                        -8.67334146 [mEh]      -5.44260394 [kcal/mol]     -22.77185488 [kJ/mol]
      Exch-Ind20,r                 22.15876119 [mEh]      13.90483257 [kcal/mol]      58.17781948 [kJ/mol]
      Exch-Ind22                    2.66202510 [mEh]       1.67044597 [kcal/mol]       6.98914594 [kJ/mol]
      delta HF,r (2)               -3.33763294 [mEh]      -2.09439629 [kcal/mol]      -8.76295407 [kJ/mol]

    Dispersion                     -2.48546429 [mEh]      -1.55965239 [kcal/mol]      -6.52558560 [kJ/mol]
      Disp20                       -2.41866167 [mEh]      -1.51773311 [kcal/mol]      -6.35019533 [kJ/mol]
      Disp21                       -0.11449577 [mEh]      -0.07184718 [kcal/mol]      -0.30060860 [kJ/mol]
      Disp22 (SDQ)                 -0.05294044 [mEh]      -0.03322063 [kcal/mol]      -0.13899511 [kJ/mol]
      Disp22 (T)                   -0.13567323 [mEh]      -0.08513624 [kcal/mol]      -0.35621001 [kJ/mol]
      Est. Disp22 (T)              -0.16701082 [mEh]      -0.10480087 [kcal/mol]      -0.43848684 [kJ/mol]
      Exch-Disp20                   0.26764440 [mEh]       0.16794940 [kcal/mol]       0.70270028 [kJ/mol]

  Total HF                       -154.33813788 [mEh]     -96.84864369 [kcal/mol]    -405.21472518 [kJ/mol]
  Total SAPT0                    -156.48915514 [mEh]     -98.19842740 [kcal/mol]    -410.86222022 [kJ/mol]
  Total SAPT2                    -151.15558047 [mEh]     -94.85155876 [kcal/mol]    -396.85892184 [kJ/mol]
  Total SAPT2+                   -151.49002750 [mEh]     -95.06142744 [kcal/mol]    -397.73701240 [kJ/mol]

  Special recipe for scaled SAPT0 (see Manual):
    Electrostatics sSAPT0        -133.26717178 [mEh]     -83.62641284 [kcal/mol]    -349.89291131 [kJ/mol]
    Exchange sSAPT0                32.30500932 [mEh]      20.27169940 [kcal/mol]      84.81679030 [kJ/mol]
    Induction sSAPT0              -52.79183388 [mEh]     -33.12737590 [kcal/mol]    -138.60494077 [kJ/mol]
    Dispersion sSAPT0              -2.14396171 [mEh]      -1.34535629 [kcal/mol]      -5.62897070 [kJ/mol]
  Total sSAPT0                   -155.89795806 [mEh]     -97.82744562 [kcal/mol]    -409.31003249 [kJ/mol]
  --------------------------------------------------------------------------------------------------------

*** Psi4 exiting successfully. Buy a developer a beer!
