                               Psi4 1.9 release

  ==> Input File <==

--------------------------------------------------------------------------
MEMORY 60 GB

molecule dimer {
1 1
Li     0.000000     0.000000     0.000000
--
0 1
O     -1.794227     0.878304     0.383152
H     -2.284044     0.065626     0.360832
H     -2.211283     1.348316    -0.381184
O      0.587966    -1.606327     0.751206
H      0.384051    -2.413930     0.275990
H      1.532090    -1.679654     1.064559
O      1.426308     1.329057     0.381484
H      1.492507     1.221218     1.387216
H      2.369890     1.360172     0.089581
O     -0.005725    -0.582202    -1.970709
H     -0.732065    -0.750880    -2.621085
H      0.674197    -1.253645    -2.250473

units ang
no_reorient
no_com
symmetry c1
}

set {
basis        aug-cc-pVTZ
scf_type     df
}

energy("sapt2+")
--------------------------------------------------------------------------

  //              Dimer HF             //
    Molecular point group: c1
  Charge       = 1
  Multiplicity = 1
  Basis Set: AUG-CC-PVTZ
    Blend: AUG-CC-PVTZ
  Basis Set: (AUG-CC-PVTZ AUX)
    Blend: AUG-CC-PVTZ-JKFIT + DEF2-UNIVERSAL-JKFIT
  @DF-RHF Final Energy:  -311.60924237206461
    Total Energy =                       -311.6092423720646138
 Dipole X            :         -4.9441634            5.5556417            0.6114783
 Dipole Y            :          2.2485103           -3.6889741           -1.4404638
 Dipole Z            :          9.9265261          -10.7969502           -0.8704241
 Magnitude           :                                                    1.7906646
  //            Monomer A HF           //
    Molecular point group: c1
  Multiplicity = 1
  Basis Set: AUG-CC-PVTZ
    Blend: AUG-CC-PVTZ
  Basis Set: (AUG-CC-PVTZ AUX)
    Blend: AUG-CC-PVTZ-JKFIT + DEF2-UNIVERSAL-JKFIT
  @DF-RHF Final Energy:    -7.23638485263783
    Total Energy =                         -7.2363848526378272
  //            Monomer B HF           //
    Molecular point group: c1

    Geometry (in Angstrom), charge = 0, multiplicity = 1:

       Center              X                  Y                   Z               Mass
    ------------   -----------------  -----------------  -----------------  -----------------
      Gh(LI)          0.000000000000     0.000000000000     0.000000000000     7.016003436600
         O           -1.794227000000     0.878304000000     0.383152000000    15.994914619570
         H           -2.284044000000     0.065626000000     0.360832000000     1.007825032230
         H           -2.211283000000     1.348316000000    -0.381184000000     1.007825032230
         O            0.587966000000    -1.606327000000     0.751206000000    15.994914619570
         H            0.384051000000    -2.413930000000     0.275990000000     1.007825032230
         H            1.532090000000    -1.679654000000     1.064559000000     1.007825032230
         O            1.426308000000     1.329057000000     0.381484000000    15.994914619570
         H            1.492507000000     1.221218000000     1.387216000000     1.007825032230
         H            2.369890000000     1.360172000000     0.089581000000     1.007825032230
         O           -0.005725000000    -0.582202000000    -1.970709000000    15.994914619570
         H           -0.732065000000    -0.750880000000    -2.621085000000     1.007825032230
         H            0.674197000000    -1.253645000000    -2.250473000000     1.007825032230

  Charge       = 0
  Multiplicity = 1
  Basis Set: AUG-CC-PVTZ
    Blend: AUG-CC-PVTZ
  Basis Set: (AUG-CC-PVTZ AUX)
    Blend: AUG-CC-PVTZ-JKFIT + DEF2-UNIVERSAL-JKFIT

    Orbital Energies [Eh]
    ---------------------

    Doubly Occupied:

       1A    -20.555442     2A    -20.546684     3A    -20.539724
       4A    -20.532801     5A     -1.321595     6A     -1.317509
       7A     -1.312814     8A     -1.297566     9A     -0.690845
      10A     -0.674915    11A     -0.664270    12A     -0.657339
      13A     -0.565466    14A     -0.554466    15A     -0.548892
      16A     -0.537716    17A     -0.497334    18A     -0.480305
      19A     -0.470438    20A     -0.465889

  @DF-RHF Final Energy:  -304.20579034538082

   => Energetics <=

    Nuclear Repulsion Energy =            130.0249669029933841
    One-Electron Energy =                -679.9974887992889307
    Two-Electron Energy =                 245.7667315509147272
    Total Energy =                       -304.2057903453808194
 Dipole X            :         -5.0640195            5.5556417            0.4916222
 Dipole Y            :          2.3606247           -3.6889741           -1.3283494
 Dipole Z            :         10.0410925          -10.7969502           -0.7558578
 Magnitude           :                                                    1.6054673

    SAPT Results
  --------------------------------------------------------------------------------------------------------
    Electrostatics               -136.46927375 [mEh]     -85.63576216 [kcal/mol]    -358.30002887 [kJ/mol]
      Elst10,r                   -147.30397131 [mEh]     -92.43463752 [kcal/mol]    -386.74652339 [kJ/mol]
      Elst12,r                     10.83469756 [mEh]       6.79887536 [kcal/mol]      28.44649453 [kJ/mol]

    Exchange                       40.41905978 [mEh]      25.36334293 [kcal/mol]     106.12022682 [kJ/mol]
      Exch10                       37.33021297 [mEh]      23.42506230 [kcal/mol]      98.01046065 [kJ/mol]
      Exch10(S^2)                  36.95762807 [mEh]      23.19126174 [kcal/mol]      97.03223912 [kJ/mol]
      Exch11(S^2)                  -0.55004058 [mEh]      -0.34515567 [kcal/mol]      -1.44413133 [kJ/mol]
      Exch12(S^2)                   3.63888738 [mEh]       2.28343631 [kcal/mol]       9.55389750 [kJ/mol]

    Induction                     -63.23642951 [mEh]     -39.68145861 [kcal/mol]    -166.02722282 [kJ/mol]
      Ind20,r                     -77.62889398 [mEh]     -48.71286641 [kcal/mol]    -203.81463306 [kJ/mol]
      Ind22                        -8.91484385 [mEh]      -5.59414897 [kcal/mol]     -23.40591931 [kJ/mol]
      Exch-Ind20,r                 24.13660905 [mEh]      15.14595084 [kcal/mol]      63.37065832 [kJ/mol]
      Exch-Ind22                    2.77183005 [mEh]       1.73934961 [kcal/mol]       7.27743878 [kJ/mol]
      delta HF,r (2)               -3.60113078 [mEh]      -2.25974368 [kcal/mol]      -9.45476756 [kJ/mol]

    Dispersion                     -2.80252911 [mEh]      -1.75861357 [kcal/mol]      -7.35803918 [kJ/mol]
      Disp20                       -2.76200445 [mEh]      -1.73318396 [kcal/mol]      -7.25164167 [kJ/mol]
      Disp21                       -0.11057217 [mEh]      -0.06938508 [kcal/mol]      -0.29030718 [kJ/mol]
      Disp22 (SDQ)                 -0.04847385 [mEh]      -0.03041780 [kcal/mol]      -0.12726809 [kJ/mol]
      Disp22 (T)                   -0.15776111 [mEh]      -0.09899659 [kcal/mol]      -0.41420175 [kJ/mol]
      Est. Disp22 (T)              -0.18673805 [mEh]      -0.11717990 [kcal/mol]      -0.49028069 [kJ/mol]
      Exch-Disp20                   0.30525940 [mEh]       0.19155317 [kcal/mol]       0.80145845 [kJ/mol]

  Total HF                       -167.06717405 [mEh]    -104.83623447 [kcal/mol]    -438.63480503 [kJ/mol]
  Total SAPT0                    -169.52391909 [mEh]    -106.37786526 [kcal/mol]    -445.08498825 [kJ/mol]
  Total SAPT2                    -161.74338853 [mEh]    -101.49550862 [kcal/mol]    -424.65720808 [kJ/mol]
  Total SAPT2+                   -162.08917260 [mEh]    -101.71249140 [kcal/mol]    -425.56506403 [kJ/mol]

  Special recipe for scaled SAPT0 (see Manual):
    Electrostatics sSAPT0        -147.30397131 [mEh]     -92.43463752 [kcal/mol]    -386.74652339 [kJ/mol]
    Exchange sSAPT0                37.33021297 [mEh]      23.42506230 [kcal/mol]      98.01046065 [kJ/mol]
    Induction sSAPT0              -56.35603865 [mEh]     -35.36394816 [kcal/mol]    -147.96275910 [kJ/mol]
    Dispersion sSAPT0              -2.44741932 [mEh]      -1.53577881 [kcal/mol]      -6.42569854 [kJ/mol]
  Total sSAPT0                   -168.77721631 [mEh]    -105.90930220 [kcal/mol]    -443.12452038 [kJ/mol]
  --------------------------------------------------------------------------------------------------------

*** Psi4 exiting successfully. Buy a developer a beer!
