                               Psi4 1.9 release

  ==> Input File <==

--------------------------------------------------------------------------
MEMORY 60 GB

molecule dimer {
1 1
Li     0.000000     0.000000     0.000000
--
0 1
O     -0.727283     0.314785     1.727344
H     -1.654172     0.224618     1.375025
H     -0.529874    -0.561861     2.080328
O      2.025004     0.493240     0.043276
H      2.399730     1.368867     0.126067
H      2.753158    -0.052861    -0.386141
O     -0.799008     1.568141    -0.789295
H     -1.113890     2.383029    -0.292064
H     -1.171737     1.638519    -1.664769
O     -0.598285    -1.751833    -0.349378
H      0.061024    -2.131900    -0.949506
H     -1.462483    -2.009864    -0.695588

units ang
no_reorient
no_com
symmetry c1
}

set {
basis        aug-cc-pVTZ
scf_type     df
}

energy("sapt2+")
--------------------------------------------------------------------------

  //              Dimer HF             //
    Molecular point group: c1
  Charge       = 1
  Multiplicity = 1
  Basis Set: AUG-CC-PVTZ
    Blend: AUG-CC-PVTZ
  Basis Set: (AUG-CC-PVTZ AUX)
    Blend: AUG-CC-PVTZ-JKFIT + DEF2-UNIVERSAL-JKFIT
  @DF-RHF Final Energy:  -311.61428827201013
    Total Energy =                       -311.6142882720101284
 Dipole X            :          2.4892169           -2.8625949           -0.3733780
 Dipole Y            :        -11.2461636           11.0609657           -0.1851979
 Dipole Z            :         -9.8889472            8.7852007           -1.1037465
 Magnitude           :                                                    1.1798159
  //            Monomer A HF           //
    Molecular point group: c1
  Multiplicity = 1
  Basis Set: AUG-CC-PVTZ
    Blend: AUG-CC-PVTZ
  Basis Set: (AUG-CC-PVTZ AUX)
    Blend: AUG-CC-PVTZ-JKFIT + DEF2-UNIVERSAL-JKFIT
  @DF-RHF Final Energy:    -7.23638493575449
    Total Energy =                         -7.2363849357544883
  //            Monomer B HF           //
    Molecular point group: c1

    Geometry (in Angstrom), charge = 0, multiplicity = 1:

       Center              X                  Y                   Z               Mass
    ------------   -----------------  -----------------  -----------------  -----------------
      Gh(LI)          0.000000000000     0.000000000000     0.000000000000     7.016003436600
         O           -0.727283000000     0.314785000000     1.727344000000    15.994914619570
         H           -1.654172000000     0.224618000000     1.375025000000     1.007825032230
         H           -0.529874000000    -0.561861000000     2.080328000000     1.007825032230
         O            2.025004000000     0.493240000000     0.043276000000    15.994914619570
         H            2.399730000000     1.368867000000     0.126067000000     1.007825032230
         H            2.753158000000    -0.052861000000    -0.386141000000     1.007825032230
         O           -0.799008000000     1.568141000000    -0.789295000000    15.994914619570
         H           -1.113890000000     2.383029000000    -0.292064000000     1.007825032230
         H           -1.171737000000     1.638519000000    -1.664769000000     1.007825032230
         O           -0.598285000000    -1.751833000000    -0.349378000000    15.994914619570
         H            0.061024000000    -2.131900000000    -0.949506000000     1.007825032230
         H           -1.462483000000    -2.009864000000    -0.695588000000     1.007825032230

  Charge       = 0
  Multiplicity = 1
  Basis Set: AUG-CC-PVTZ
    Blend: AUG-CC-PVTZ
  Basis Set: (AUG-CC-PVTZ AUX)
    Blend: AUG-CC-PVTZ-JKFIT + DEF2-UNIVERSAL-JKFIT

    Orbital Energies [Eh]
    ---------------------

    Doubly Occupied:

       1A    -20.550222     2A    -20.541983     3A    -20.539605
       4A    -20.517681     5A     -1.330278     6A     -1.315011
       7A     -1.310319     8A     -1.290143     9A     -0.699248
      10A     -0.682023    11A     -0.673803    12A     -0.652215
      13A     -0.566658    14A     -0.555116    15A     -0.539090
      16A     -0.526378    17A     -0.491953    18A     -0.482905
      19A     -0.472486    20A     -0.451056

  @DF-RHF Final Energy:  -304.21289303567170

   => Energetics <=

    Nuclear Repulsion Energy =            132.6418284230064728
    One-Electron Energy =                -685.3330950849876899
    Two-Electron Energy =                 248.4783736263095193
    Total Energy =                       -304.2128930356716978
 Dipole X            :          2.5934498           -2.8625949           -0.2691451
 Dipole Y            :        -11.3249961           11.0609657           -0.2640303
 Dipole Z            :         -9.9306327            8.7852007           -1.1454320
 Magnitude           :                                                    1.2058879

    SAPT Results
  --------------------------------------------------------------------------------------------------------
    Electrostatics               -138.01344795 [mEh]     -86.60474609 [kcal/mol]    -362.35425766 [kJ/mol]
      Elst10,r                   -148.77461424 [mEh]     -93.35747989 [kcal/mol]    -390.60769586 [kJ/mol]
      Elst12,r                     10.76116629 [mEh]       6.75273380 [kcal/mol]      28.25343820 [kJ/mol]

    Exchange                       47.03833486 [mEh]      29.51700075 [kcal/mol]     123.49913116 [kJ/mol]
      Exch10                       43.50364565 [mEh]      27.29894979 [kcal/mol]     114.21880592 [kJ/mol]
      Exch10(S^2)                  42.99902044 [mEh]      26.98229269 [kcal/mol]     112.89391260 [kJ/mol]
      Exch11(S^2)                  -0.68802685 [mEh]      -0.43174337 [kcal/mol]      -1.80641425 [kJ/mol]
      Exch12(S^2)                   4.22271606 [mEh]       2.64979433 [kcal/mol]      11.08673948 [kJ/mol]

    Induction                     -66.19664340 [mEh]     -41.53902087 [kcal/mol]    -173.79926331 [kJ/mol]
      Ind20,r                     -82.80056062 [mEh]     -51.95813622 [kcal/mol]    -217.39284196 [kJ/mol]
      Ind22                        -9.64386162 [mEh]      -6.05161453 [kcal/mol]     -25.31995520 [kJ/mol]
      Exch-Ind20,r                 27.35917985 [mEh]      17.16814455 [kcal/mol]      71.83151680 [kJ/mol]
      Exch-Ind22                    3.18655022 [mEh]       1.99959045 [kcal/mol]       8.36628645 [kJ/mol]
      delta HF,r (2)               -4.29795123 [mEh]      -2.69700511 [kcal/mol]     -11.28426940 [kJ/mol]

    Dispersion                     -3.15331400 [mEh]      -1.97873441 [kcal/mol]      -8.27902476 [kJ/mol]
      Disp20                       -3.12161638 [mEh]      -1.95884385 [kcal/mol]      -8.19580267 [kJ/mol]
      Disp21                       -0.11685147 [mEh]      -0.07332540 [kcal/mol]      -0.30679349 [kJ/mol]
      Disp22 (SDQ)                 -0.05554770 [mEh]      -0.03485671 [kcal/mol]      -0.14584046 [kJ/mol]
      Disp22 (T)                   -0.18489852 [mEh]      -0.11602557 [kcal/mol]      -0.48545099 [kJ/mol]
      Est. Disp22 (T)              -0.21148122 [mEh]      -0.13270647 [kcal/mol]      -0.55524387 [kJ/mol]
      Exch-Disp20                   0.35218277 [mEh]       0.22099802 [kcal/mol]       0.92465573 [kJ/mol]

  Total HF                       -165.01030058 [mEh]    -103.54552689 [kcal/mol]    -433.23448450 [kJ/mol]
  Total SAPT0                    -167.77973419 [mEh]    -105.28337272 [kcal/mol]    -440.50563144 [kJ/mol]
  Total SAPT2                    -159.94119010 [mEh]    -100.36461204 [kcal/mol]    -419.92553676 [kJ/mol]
  Total SAPT2+                   -160.32507049 [mEh]    -100.60550062 [kcal/mol]    -420.93341458 [kJ/mol]

  Special recipe for scaled SAPT0 (see Manual):
    Electrostatics sSAPT0        -148.77461424 [mEh]     -93.35747989 [kcal/mol]    -390.60769586 [kJ/mol]
    Exchange sSAPT0                43.50364565 [mEh]      27.29894979 [kcal/mol]     114.21880592 [kJ/mol]
    Induction sSAPT0              -58.76474298 [mEh]     -36.87543295 [kcal/mol]    -154.28681144 [kJ/mol]
    Dispersion sSAPT0              -2.75688815 [mEh]      -1.72997343 [kcal/mol]      -7.23820885 [kJ/mol]
  Total sSAPT0                   -166.79259972 [mEh]    -104.66393648 [kcal/mol]    -437.91391023 [kJ/mol]
  --------------------------------------------------------------------------------------------------------

*** Psi4 exiting successfully. Buy a developer a beer!
