                               Psi4 1.9 release

  ==> Input File <==

--------------------------------------------------------------------------
MEMORY 60 GB

molecule dimer {
1 1
Li     0.000000     0.000000     0.000000
--
0 1
O     -1.823214    -0.719894     0.345269
H     -2.765845    -0.448248     0.422513
H     -1.777057    -1.712165     0.634199
O      0.476037     1.149236     1.715289
H      0.711857     2.093154     1.538815
H      0.685084     0.967159     2.641652
O      1.728929    -0.875103     0.471180
H      2.397221    -1.337494    -0.064528
H      2.188841    -0.670296     1.297771
O      0.027016     0.508388    -1.723464
H      0.534035     1.318936    -1.962317
H      0.013326    -0.084920    -2.476549

units ang
no_reorient
no_com
symmetry c1
}

set {
basis        aug-cc-pVTZ
scf_type     df
}

energy("sapt2+")
--------------------------------------------------------------------------

  //              Dimer HF             //
    Molecular point group: c1
  Charge       = 1
  Multiplicity = 1
  Basis Set: AUG-CC-PVTZ
    Blend: AUG-CC-PVTZ
  Basis Set: (AUG-CC-PVTZ AUX)
    Blend: AUG-CC-PVTZ-JKFIT + DEF2-UNIVERSAL-JKFIT
  @DF-RHF Final Energy:  -311.61701329811524
    Total Energy =                       -311.6170132981152392
 Dipole X            :         -9.1251034            9.9354354            0.8103320
 Dipole Y            :         -1.1418830            1.1851266            0.0432437
 Dipole Z            :        -15.7551039           16.0584164            0.3033125
 Magnitude           :                                                    0.8663178
  //            Monomer A HF           //
    Molecular point group: c1
  Multiplicity = 1
  Basis Set: AUG-CC-PVTZ
    Blend: AUG-CC-PVTZ
  Basis Set: (AUG-CC-PVTZ AUX)
    Blend: AUG-CC-PVTZ-JKFIT + DEF2-UNIVERSAL-JKFIT
  @DF-RHF Final Energy:    -7.23638479565465
    Total Energy =                         -7.2363847956546516
  //            Monomer B HF           //
    Molecular point group: c1

    Geometry (in Angstrom), charge = 0, multiplicity = 1:

       Center              X                  Y                   Z               Mass
    ------------   -----------------  -----------------  -----------------  -----------------
      Gh(LI)          0.000000000000     0.000000000000     0.000000000000     7.016003436600
         O           -1.823214000000    -0.719894000000     0.345269000000    15.994914619570
         H           -2.765845000000    -0.448248000000     0.422513000000     1.007825032230
         H           -1.777057000000    -1.712165000000     0.634199000000     1.007825032230
         O            0.476037000000     1.149236000000     1.715289000000    15.994914619570
         H            0.711857000000     2.093154000000     1.538815000000     1.007825032230
         H            0.685084000000     0.967159000000     2.641652000000     1.007825032230
         O            1.728929000000    -0.875103000000     0.471180000000    15.994914619570
         H            2.397221000000    -1.337494000000    -0.064528000000     1.007825032230
         H            2.188841000000    -0.670296000000     1.297771000000     1.007825032230
         O            0.027016000000     0.508388000000    -1.723464000000    15.994914619570
         H            0.534035000000     1.318936000000    -1.962317000000     1.007825032230
         H            0.013326000000    -0.084920000000    -2.476549000000     1.007825032230

  Charge       = 0
  Multiplicity = 1
  Basis Set: AUG-CC-PVTZ
    Blend: AUG-CC-PVTZ
  Basis Set: (AUG-CC-PVTZ AUX)
    Blend: AUG-CC-PVTZ-JKFIT + DEF2-UNIVERSAL-JKFIT

    Orbital Energies [Eh]
    ---------------------

    Doubly Occupied:

       1A    -20.539973     2A    -20.533844     3A    -20.532510
       4A    -20.528178     5A     -1.316268     6A     -1.308033
       7A     -1.303944     8A     -1.286294     9A     -0.686462
      10A     -0.679478    11A     -0.672653    12A     -0.652965
      13A     -0.558319    14A     -0.535930    15A     -0.532061
      16A     -0.516265    17A     -0.485023    18A     -0.470665
      19A     -0.462208    20A     -0.460861

  @DF-RHF Final Energy:  -304.20147211667688

   => Energetics <=

    Nuclear Repulsion Energy =            130.7211754217189537
    One-Electron Energy =                -681.7214194100695295
    Two-Electron Energy =                 246.7987718716736936
    Total Energy =                       -304.2014721166768823
 Dipole X            :         -9.2293874            9.9354354            0.7060480
 Dipole Y            :         -1.1326458            1.1851266            0.0524809
 Dipole Z            :        -15.8119295           16.0584164            0.2464869
 Magnitude           :                                                    0.7496758

    SAPT Results
  --------------------------------------------------------------------------------------------------------
    Electrostatics               -146.32454387 [mEh]     -91.82003753 [kcal/mol]    -384.17503701 [kJ/mol]
      Elst10,r                   -160.00562849 [mEh]    -100.40504773 [kcal/mol]    -420.09471972 [kJ/mol]
      Elst12,r                     13.68108462 [mEh]       8.58501021 [kcal/mol]      35.91968271 [kJ/mol]

    Exchange                       41.33386472 [mEh]      25.93739170 [kcal/mol]     108.52204686 [kJ/mol]
      Exch10                       38.82774782 [mEh]      24.36477960 [kcal/mol]     101.94223785 [kJ/mol]
      Exch10(S^2)                  38.42524719 [mEh]      24.11220664 [kcal/mol]     100.88547260 [kJ/mol]
      Exch11(S^2)                  -0.53497105 [mEh]      -0.33569940 [kcal/mol]      -1.40456630 [kJ/mol]
      Exch12(S^2)                   3.04108795 [mEh]       1.90831150 [kcal/mol]       7.98437531 [kJ/mol]

    Induction                     -63.89526941 [mEh]     -40.09488689 [kcal/mol]    -167.75700674 [kJ/mol]
      Ind20,r                     -78.46916472 [mEh]     -49.24014426 [kcal/mol]    -206.02076358 [kJ/mol]
      Ind22                        -8.53295800 [mEh]      -5.35451198 [kcal/mol]     -22.40327814 [kJ/mol]
      Exch-Ind20,r                 24.05854267 [mEh]      15.09696345 [kcal/mol]      63.16569508 [kJ/mol]
      Exch-Ind22                    2.61619370 [mEh]       1.64168633 [kcal/mol]       6.86881560 [kJ/mol]
      delta HF,r (2)               -3.56788307 [mEh]      -2.23888043 [kcal/mol]      -9.36747570 [kJ/mol]

    Dispersion                     -2.84601062 [mEh]      -1.78589862 [kcal/mol]      -7.47219984 [kJ/mol]
      Disp20                       -2.83372285 [mEh]      -1.77818793 [kcal/mol]      -7.43993831 [kJ/mol]
      Disp21                       -0.09597544 [mEh]      -0.06022550 [kcal/mol]      -0.25198348 [kJ/mol]
      Disp22 (SDQ)                 -0.03858017 [mEh]      -0.02420942 [kcal/mol]      -0.10129222 [kJ/mol]
      Disp22 (T)                   -0.15614706 [mEh]      -0.09798376 [kcal/mol]      -0.40996405 [kJ/mol]
      Est. Disp22 (T)              -0.18488421 [mEh]      -0.11601659 [kcal/mol]      -0.48541343 [kJ/mol]
      Exch-Disp20                   0.30715205 [mEh]       0.19274082 [kcal/mol]       0.80642761 [kJ/mol]

  Total HF                       -179.15638578 [mEh]    -112.42232937 [kcal/mol]    -470.37502607 [kJ/mol]
  Total SAPT0                    -181.68295658 [mEh]    -114.00777648 [kcal/mol]    -477.00853678 [kJ/mol]
  Total SAPT2                    -171.41251936 [mEh]    -107.56297983 [kcal/mol]    -450.04350759 [kJ/mol]
  Total SAPT2+                   -171.73195919 [mEh]    -107.76343134 [kcal/mol]    -450.88219672 [kJ/mol]

  Special recipe for scaled SAPT0 (see Manual):
    Electrostatics sSAPT0        -160.00562849 [mEh]    -100.40504773 [kcal/mol]    -420.09471972 [kJ/mol]
    Exchange sSAPT0                38.82774782 [mEh]      24.36477960 [kcal/mol]     101.94223785 [kJ/mol]
    Induction sSAPT0              -57.21452560 [mEh]     -35.90265685 [kcal/mol]    -150.21671626 [kJ/mol]
    Dispersion sSAPT0              -2.51681717 [mEh]      -1.57932662 [kcal/mol]      -6.60790258 [kJ/mol]
  Total sSAPT0                   -180.90922344 [mEh]    -113.52225161 [kcal/mol]    -474.97710072 [kJ/mol]
  --------------------------------------------------------------------------------------------------------

*** Psi4 exiting successfully. Buy a developer a beer!
