                               Psi4 1.9 release

  ==> Input File <==

--------------------------------------------------------------------------
MEMORY 60 GB

molecule dimer {
1 1
Li     0.000000     0.000000     0.000000
--
0 1
O      1.208138    -1.483905    -0.054330
H      1.706083    -1.757206     0.774298
H      1.774244    -1.511918    -0.824749
O      0.360921     0.615778     1.634830
H      1.202116     0.241370     2.076436
H      0.323012     1.571300     1.866216
O      0.388360     1.633741    -1.150752
H      0.616019     1.302636    -2.021055
H      1.215882     1.819896    -0.713647
O     -1.776461    -0.480367    -0.202286
H     -2.398739    -0.310590     0.568127
H     -1.994482    -1.342837    -0.497433

units ang
no_reorient
no_com
symmetry c1
}

set {
basis        aug-cc-pVTZ
scf_type     df
}

energy("sapt2+")
--------------------------------------------------------------------------

  //              Dimer HF             //
    Molecular point group: c1
  Charge       = 1
  Multiplicity = 1
  Basis Set: AUG-CC-PVTZ
    Blend: AUG-CC-PVTZ
  Basis Set: (AUG-CC-PVTZ AUX)
    Blend: AUG-CC-PVTZ-JKFIT + DEF2-UNIVERSAL-JKFIT
  @DF-RHF Final Energy:  -311.60773363002329
    Total Energy =                       -311.6077336300232901
 Dipole X            :         -5.9434132            7.3544342            1.4110210
 Dipole Y            :         -4.7160284            4.3362166           -0.3798118
 Dipole Z            :         -5.1518900            5.7596755            0.6077855
 Magnitude           :                                                    1.5826056
  //            Monomer A HF           //
    Molecular point group: c1
  Multiplicity = 1
  Basis Set: AUG-CC-PVTZ
    Blend: AUG-CC-PVTZ
  Basis Set: (AUG-CC-PVTZ AUX)
    Blend: AUG-CC-PVTZ-JKFIT + DEF2-UNIVERSAL-JKFIT
  @DF-RHF Final Energy:    -7.23638494576550
    Total Energy =                         -7.2363849457654954
  //            Monomer B HF           //
    Molecular point group: c1

    Geometry (in Angstrom), charge = 0, multiplicity = 1:

       Center              X                  Y                   Z               Mass
    ------------   -----------------  -----------------  -----------------  -----------------
      Gh(LI)          0.000000000000     0.000000000000     0.000000000000     7.016003436600
         O            1.208138000000    -1.483905000000    -0.054330000000    15.994914619570
         H            1.706083000000    -1.757206000000     0.774298000000     1.007825032230
         H            1.774244000000    -1.511918000000    -0.824749000000     1.007825032230
         O            0.360921000000     0.615778000000     1.634830000000    15.994914619570
         H            1.202116000000     0.241370000000     2.076436000000     1.007825032230
         H            0.323012000000     1.571300000000     1.866216000000     1.007825032230
         O            0.388360000000     1.633741000000    -1.150752000000    15.994914619570
         H            0.616019000000     1.302636000000    -2.021055000000     1.007825032230
         H            1.215882000000     1.819896000000    -0.713647000000     1.007825032230
         O           -1.776461000000    -0.480367000000    -0.202286000000    15.994914619570
         H           -2.398739000000    -0.310590000000     0.568127000000     1.007825032230
         H           -1.994482000000    -1.342837000000    -0.497433000000     1.007825032230

  Charge       = 0
  Multiplicity = 1
  Basis Set: AUG-CC-PVTZ
    Blend: AUG-CC-PVTZ
  Basis Set: (AUG-CC-PVTZ AUX)
    Blend: AUG-CC-PVTZ-JKFIT + DEF2-UNIVERSAL-JKFIT

    Orbital Energies [Eh]
    ---------------------

    Doubly Occupied:

       1A    -20.550090     2A    -20.548739     3A    -20.530404
       4A    -20.522964     5A     -1.322098     6A     -1.317880
       7A     -1.305816     8A     -1.301653     9A     -0.703604
      10A     -0.687949    11A     -0.671690    12A     -0.665699
      13A     -0.559987    14A     -0.546578    15A     -0.537055
      16A     -0.529216    17A     -0.497941    18A     -0.476143
      19A     -0.466616    20A     -0.460741

  @DF-RHF Final Energy:  -304.20206059773835

   => Energetics <=

    Nuclear Repulsion Energy =            134.6389309878858285
    One-Electron Energy =                -689.2762490805270090
    Two-Electron Energy =                 250.4352574949028565
    Total Energy =                       -304.2020605977382957
 Dipole X            :         -6.0655437            7.3544342            1.2888906
 Dipole Y            :         -4.7311337            4.3362166           -0.3949171
 Dipole Z            :         -5.3092962            5.7596755            0.4503793
 Magnitude           :                                                    1.4212811

    SAPT Results
  --------------------------------------------------------------------------------------------------------
    Electrostatics               -147.53930743 [mEh]     -92.58231317 [kcal/mol]    -387.36439829 [kJ/mol]
      Elst10,r                   -159.32403787 [mEh]     -99.97734317 [kcal/mol]    -418.30520381 [kJ/mol]
      Elst12,r                     11.78473044 [mEh]       7.39503000 [kcal/mol]      30.94080551 [kJ/mol]

    Exchange                       58.35616974 [mEh]      36.61904936 [kcal/mol]     153.21410254 [kJ/mol]
      Exch10                       54.73905547 [mEh]      34.34927589 [kcal/mol]     143.71737033 [kJ/mol]
      Exch10(S^2)                  53.94380086 [mEh]      33.85024609 [kcal/mol]     141.62942964 [kJ/mol]
      Exch11(S^2)                  -0.88068039 [mEh]      -0.55263529 [kcal/mol]      -2.31222604 [kJ/mol]
      Exch12(S^2)                   4.49779466 [mEh]       2.82240876 [kcal/mol]      11.80895824 [kJ/mol]

    Induction                     -71.50182161 [mEh]     -44.86807046 [kcal/mol]    -187.72800679 [kJ/mol]
      Ind20,r                     -92.15235346 [mEh]     -57.82647483 [kcal/mol]    -241.94597067 [kJ/mol]
      Ind22                       -10.50175152 [mEh]      -6.58994857 [kcal/mol]     -27.57234482 [kJ/mol]
      Exch-Ind20,r                 32.49394153 [mEh]      20.39025615 [kcal/mol]      85.31283175 [kJ/mol]
      Exch-Ind22                    3.70303402 [mEh]       2.32368893 [kcal/mol]       9.72231448 [kJ/mol]
      delta HF,r (2)               -5.04469219 [mEh]      -3.16559214 [kcal/mol]     -13.24483752 [kJ/mol]

    Dispersion                     -3.69196026 [mEh]      -2.31674004 [kcal/mol]      -9.69324033 [kJ/mol]
      Disp20                       -3.70030302 [mEh]      -2.32197520 [kcal/mol]      -9.71514423 [kJ/mol]
      Disp21                       -0.12556912 [mEh]      -0.07879581 [kcal/mol]      -0.32968168 [kJ/mol]
      Disp22 (SDQ)                 -0.05728204 [mEh]      -0.03594502 [kcal/mol]      -0.15039398 [kJ/mol]
      Disp22 (T)                   -0.21330854 [mEh]      -0.13385313 [kcal/mol]      -0.56004150 [kJ/mol]
      Est. Disp22 (T)              -0.24469499 [mEh]      -0.15354842 [kcal/mol]      -0.64244661 [kJ/mol]
      Exch-Disp20                   0.43588891 [mEh]       0.27352442 [kcal/mol]       1.14442618 [kJ/mol]

  Total HF                       -169.28808652 [mEh]    -106.22987809 [kcal/mol]    -444.46580992 [kJ/mol]
  Total SAPT0                    -172.55250063 [mEh]    -108.27832887 [kcal/mol]    -453.03652798 [kJ/mol]
  Total SAPT2                    -163.94937342 [mEh]    -102.87978504 [kcal/mol]    -430.44902060 [kJ/mol]
  Total SAPT2+                   -164.37691957 [mEh]    -103.14807430 [kcal/mol]    -431.57154287 [kJ/mol]

  Special recipe for scaled SAPT0 (see Manual):
    Electrostatics sSAPT0        -159.32403787 [mEh]     -99.97734317 [kcal/mol]    -418.30520381 [kJ/mol]
    Exchange sSAPT0                54.73905547 [mEh]      34.34927589 [kcal/mol]     143.71737033 [kJ/mol]
    Induction sSAPT0              -63.24470947 [mEh]     -39.68665436 [kcal/mol]    -166.04896183 [kJ/mol]
    Dispersion sSAPT0              -3.24485052 [mEh]      -2.03617444 [kcal/mol]      -8.51935387 [kJ/mol]
  Total sSAPT0                   -171.07454239 [mEh]    -107.35089607 [kcal/mol]    -449.15614917 [kJ/mol]
  --------------------------------------------------------------------------------------------------------

*** Psi4 exiting successfully. Buy a developer a beer!
