                               Psi4 1.9 release

  ==> Input File <==

--------------------------------------------------------------------------
MEMORY 60 GB

molecule dimer {
1 1
Li     0.000000     0.000000     0.000000
--
0 1
O     -1.959429     0.551722    -0.115906
H     -2.501903     1.114878     0.470899
H     -2.703678     0.065273    -0.568937
O      0.234542    -1.408943     1.091451
H     -0.520325    -2.028104     0.922529
H      0.330550    -1.475194     2.088232
O      0.911987     1.610117     0.968941
H      1.448281     1.554265     1.803833
H      1.223738     2.292862     0.375246
O      0.842688     0.233769    -1.798413
H      0.637542    -0.124408    -2.680969
H      1.557305     0.923962    -1.781956

units ang
no_reorient
no_com
symmetry c1
}

set {
basis        aug-cc-pVTZ
scf_type     df
}

energy("sapt2+")
--------------------------------------------------------------------------

  //              Dimer HF             //
    Molecular point group: c1
  Charge       = 1
  Multiplicity = 1
  Basis Set: AUG-CC-PVTZ
    Blend: AUG-CC-PVTZ
  Basis Set: (AUG-CC-PVTZ AUX)
    Blend: AUG-CC-PVTZ-JKFIT + DEF2-UNIVERSAL-JKFIT
  @DF-RHF Final Energy:  -311.61396358029936
    Total Energy =                       -311.6139635802993553
 Dipole X            :          0.1804634           -0.5483721           -0.3679087
 Dipole Y            :        -18.9560848           19.3070559            0.3509712
 Dipole Z            :         -3.1292137            3.3967090            0.2674954
 Magnitude           :                                                    0.5745358
  //            Monomer A HF           //
    Molecular point group: c1
  Multiplicity = 1
  Basis Set: AUG-CC-PVTZ
    Blend: AUG-CC-PVTZ
  Basis Set: (AUG-CC-PVTZ AUX)
    Blend: AUG-CC-PVTZ-JKFIT + DEF2-UNIVERSAL-JKFIT
  @DF-RHF Final Energy:    -7.23638479732513
    Total Energy =                         -7.2363847973251341
  //            Monomer B HF           //
    Molecular point group: c1

    Geometry (in Angstrom), charge = 0, multiplicity = 1:

       Center              X                  Y                   Z               Mass
    ------------   -----------------  -----------------  -----------------  -----------------
      Gh(LI)          0.000000000000     0.000000000000     0.000000000000     7.016003436600
         O           -1.959429000000     0.551722000000    -0.115906000000    15.994914619570
         H           -2.501903000000     1.114878000000     0.470899000000     1.007825032230
         H           -2.703678000000     0.065273000000    -0.568937000000     1.007825032230
         O            0.234542000000    -1.408943000000     1.091451000000    15.994914619570
         H           -0.520325000000    -2.028104000000     0.922529000000     1.007825032230
         H            0.330550000000    -1.475194000000     2.088232000000     1.007825032230
         O            0.911987000000     1.610117000000     0.968941000000    15.994914619570
         H            1.448281000000     1.554265000000     1.803833000000     1.007825032230
         H            1.223738000000     2.292862000000     0.375246000000     1.007825032230
         O            0.842688000000     0.233769000000    -1.798413000000    15.994914619570
         H            0.637542000000    -0.124408000000    -2.680969000000     1.007825032230
         H            1.557305000000     0.923962000000    -1.781956000000     1.007825032230

  Charge       = 0
  Multiplicity = 1
  Basis Set: AUG-CC-PVTZ
    Blend: AUG-CC-PVTZ
  Basis Set: (AUG-CC-PVTZ AUX)
    Blend: AUG-CC-PVTZ-JKFIT + DEF2-UNIVERSAL-JKFIT

    Orbital Energies [Eh]
    ---------------------

    Doubly Occupied:

       1A    -20.543634     2A    -20.537223     3A    -20.535915
       4A    -20.532902     5A     -1.311806     6A     -1.310213
       7A     -1.299574     8A     -1.296386     9A     -0.696938
      10A     -0.685735    11A     -0.657721    12A     -0.652111
      13A     -0.560802    14A     -0.543022    15A     -0.529262
      16A     -0.519889    17A     -0.481722    18A     -0.475802
      19A     -0.469618    20A     -0.462534

  @DF-RHF Final Energy:  -304.19966513567556

   => Energetics <=

    Nuclear Repulsion Energy =            129.5980294879370831
    One-Electron Energy =                -679.3897658677313984
    Two-Electron Energy =                 245.5920712441187561
    Total Energy =                       -304.1996651356755592
 Dipole X            :          0.2069675           -0.5483721           -0.3414045
 Dipole Y            :        -19.0570688           19.3070559            0.2499871
 Dipole Z            :         -3.2188342            3.3967090            0.1778748
 Magnitude           :                                                    0.4590099

    SAPT Results
  --------------------------------------------------------------------------------------------------------
    Electrostatics               -145.56908342 [mEh]     -91.34597893 [kcal/mol]    -382.19157586 [kJ/mol]
      Elst10,r                   -158.58764253 [mEh]     -99.51524811 [kcal/mol]    -416.37179811 [kJ/mol]
      Elst12,r                     13.01855912 [mEh]       8.16926918 [kcal/mol]      34.18022225 [kJ/mol]

    Exchange                       41.41896757 [mEh]      25.99079454 [kcal/mol]     108.74548438 [kJ/mol]
      Exch10                       38.79009377 [mEh]      24.34115133 [kcal/mol]     101.84337716 [kJ/mol]
      Exch10(S^2)                  38.38889801 [mEh]      24.08939719 [kcal/mol]     100.79003785 [kJ/mol]
      Exch11(S^2)                  -0.53928592 [mEh]      -0.33840702 [kcal/mol]      -1.41589498 [kJ/mol]
      Exch12(S^2)                   3.16815972 [mEh]       1.98805024 [kcal/mol]       8.31800219 [kJ/mol]

    Induction                     -64.08087772 [mEh]     -40.21135786 [kcal/mol]    -168.24432127 [kJ/mol]
      Ind20,r                     -78.84315682 [mEh]     -49.47482784 [kcal/mol]    -207.00267970 [kJ/mol]
      Ind22                        -8.63011559 [mEh]      -5.41547929 [kcal/mol]     -22.65836537 [kJ/mol]
      Exch-Ind20,r                 24.35002570 [mEh]      15.27987181 [kcal/mol]      63.93098365 [kJ/mol]
      Exch-Ind22                    2.66533641 [mEh]       1.67252385 [kcal/mol]       6.99783978 [kJ/mol]
      delta HF,r (2)               -3.62296741 [mEh]      -2.27344638 [kcal/mol]      -9.51209964 [kJ/mol]

    Dispersion                     -2.85416031 [mEh]      -1.79101264 [kcal/mol]      -7.49359687 [kJ/mol]
      Disp20                       -2.83486765 [mEh]      -1.77890631 [kcal/mol]      -7.44294399 [kJ/mol]
      Disp21                       -0.10191345 [mEh]      -0.06395166 [kcal/mol]      -0.26757373 [kJ/mol]
      Disp22 (SDQ)                 -0.04021543 [mEh]      -0.02523557 [kcal/mol]      -0.10558561 [kJ/mol]
      Disp22 (T)                   -0.15883291 [mEh]      -0.09966915 [kcal/mol]      -0.41701574 [kJ/mol]
      Est. Disp22 (T)              -0.18718796 [mEh]      -0.11746222 [kcal/mol]      -0.49146192 [kJ/mol]
      Exch-Disp20                   0.31002418 [mEh]       0.19454311 [kcal/mol]       0.81396838 [kJ/mol]

  Total HF                       -177.91364730 [mEh]    -111.64249919 [kcal/mol]    -467.11221663 [kJ/mol]
  Total SAPT0                    -180.43849077 [mEh]    -113.22686239 [kcal/mol]    -473.74119225 [kJ/mol]
  Total SAPT2                    -170.75583703 [mEh]    -107.15090544 [kcal/mol]    -448.31938837 [kJ/mol]
  Total SAPT2+                   -171.08515388 [mEh]    -107.35755488 [kcal/mol]    -449.18400962 [kJ/mol]

  Special recipe for scaled SAPT0 (see Manual):
    Electrostatics sSAPT0        -158.58764253 [mEh]     -99.51524811 [kcal/mol]    -416.37179811 [kJ/mol]
    Exchange sSAPT0                38.79009377 [mEh]      24.34115133 [kcal/mol]     101.84337716 [kJ/mol]
    Induction sSAPT0              -57.34465846 [mEh]     -35.98431646 [kcal/mol]    -150.55838005 [kJ/mol]
    Dispersion sSAPT0              -2.51502151 [mEh]      -1.57819982 [kcal/mol]      -6.60318806 [kJ/mol]
  Total sSAPT0                   -179.65722873 [mEh]    -112.73661306 [kcal/mol]    -471.68998905 [kJ/mol]
  --------------------------------------------------------------------------------------------------------

*** Psi4 exiting successfully. Buy a developer a beer!
