                               Psi4 1.9 release

  ==> Input File <==

--------------------------------------------------------------------------
MEMORY 60 GB

molecule dimer {
1 1
Li     0.000000     0.000000     0.000000
--
0 1
O     -0.007634    -1.023123    -1.511591
H      0.057973    -0.546603    -2.301212
H     -0.749478    -1.673774    -1.686888
O     -0.253781    -0.523552     1.861966
H      0.377486    -1.069012     2.381988
H     -0.297109     0.310860     2.309038
O     -0.726151     1.712601    -0.023638
H     -1.486107     2.345326    -0.255453
H      0.048758     2.312731    -0.026328
O      1.873846     0.435239     0.205989
H      2.286734    -0.048458    -0.478572
H      2.531118     0.339515     0.930741

units ang
no_reorient
no_com
symmetry c1
}

set {
basis        aug-cc-pVTZ
scf_type     df
}

energy("sapt2+")
--------------------------------------------------------------------------

  //              Dimer HF             //
    Molecular point group: c1
  Charge       = 1
  Multiplicity = 1
  Basis Set: AUG-CC-PVTZ
    Blend: AUG-CC-PVTZ
  Basis Set: (AUG-CC-PVTZ AUX)
    Blend: AUG-CC-PVTZ-JKFIT + DEF2-UNIVERSAL-JKFIT
  @DF-RHF Final Energy:  -311.61706700937151
    Total Energy =                       -311.6170670093715103
 Dipole X            :        -17.8681998           18.6319721            0.7637722
 Dipole Y            :        -12.2175262           12.8121636            0.5946374
 Dipole Z            :         -9.8316138            9.7039742           -0.1276396
 Magnitude           :                                                    0.9763368
  //            Monomer A HF           //
    Molecular point group: c1
  Multiplicity = 1
  Basis Set: AUG-CC-PVTZ
    Blend: AUG-CC-PVTZ
  Basis Set: (AUG-CC-PVTZ AUX)
    Blend: AUG-CC-PVTZ-JKFIT + DEF2-UNIVERSAL-JKFIT
  @DF-RHF Final Energy:    -7.23638498820873
    Total Energy =                         -7.2363849882087310
  //            Monomer B HF           //
    Molecular point group: c1

    Geometry (in Angstrom), charge = 0, multiplicity = 1:

       Center              X                  Y                   Z               Mass
    ------------   -----------------  -----------------  -----------------  -----------------
      Gh(LI)          0.000000000000     0.000000000000     0.000000000000     7.016003436600
         O           -0.007634000000    -1.023123000000    -1.511591000000    15.994914619570
         H            0.057973000000    -0.546603000000    -2.301212000000     1.007825032230
         H           -0.749478000000    -1.673774000000    -1.686888000000     1.007825032230
         O           -0.253781000000    -0.523552000000     1.861966000000    15.994914619570
         H            0.377486000000    -1.069012000000     2.381988000000     1.007825032230
         H           -0.297109000000     0.310860000000     2.309038000000     1.007825032230
         O           -0.726151000000     1.712601000000    -0.023638000000    15.994914619570
         H           -1.486107000000     2.345326000000    -0.255453000000     1.007825032230
         H            0.048758000000     2.312731000000    -0.026328000000     1.007825032230
         O            1.873846000000     0.435239000000     0.205989000000    15.994914619570
         H            2.286734000000    -0.048458000000    -0.478572000000     1.007825032230
         H            2.531118000000     0.339515000000     0.930741000000     1.007825032230

  Charge       = 0
  Multiplicity = 1
  Basis Set: AUG-CC-PVTZ
    Blend: AUG-CC-PVTZ
  Basis Set: (AUG-CC-PVTZ AUX)
    Blend: AUG-CC-PVTZ-JKFIT + DEF2-UNIVERSAL-JKFIT

    Orbital Energies [Eh]
    ---------------------

    Doubly Occupied:

       1A    -20.543029     2A    -20.539432     3A    -20.537370
       4A    -20.524173     5A     -1.329343     6A     -1.321907
       7A     -1.306652     8A     -1.302643     9A     -0.687324
      10A     -0.680727    11A     -0.673574    12A     -0.660727
      13A     -0.568969    14A     -0.551744    15A     -0.545939
      16A     -0.533043    17A     -0.490477    18A     -0.483176
      19A     -0.470951    20A     -0.455210

  @DF-RHF Final Energy:  -304.21060669413890

   => Energetics <=

    Nuclear Repulsion Energy =            136.0100691404803968
    One-Electron Energy =                -692.0285288236485712
    Two-Electron Energy =                 251.8078529890292998
    Total Energy =                       -304.2106066941389031
 Dipole X            :        -18.0279371           18.6319721            0.6040349
 Dipole Y            :        -12.3668727           12.8121636            0.4452909
 Dipole Z            :         -9.8978259            9.7039742           -0.1938517
 Magnitude           :                                                    0.7750617

    SAPT Results
  --------------------------------------------------------------------------------------------------------
    Electrostatics               -143.55586517 [mEh]     -90.08266541 [kcal/mol]    -376.90587207 [kJ/mol]
      Elst10,r                   -156.23057489 [mEh]     -98.03616584 [kcal/mol]    -410.18331786 [kJ/mol]
      Elst12,r                     12.67470972 [mEh]       7.95350043 [kcal/mol]      33.27744579 [kJ/mol]

    Exchange                       53.22552858 [mEh]      33.39952343 [kcal/mol]     139.74360604 [kJ/mol]
      Exch10                       49.99078971 [mEh]      31.36969414 [kcal/mol]     131.25080029 [kJ/mol]
      Exch10(S^2)                  49.32477465 [mEh]      30.95176339 [kcal/mol]     129.50217801 [kJ/mol]
      Exch11(S^2)                  -0.81599957 [mEh]      -0.51204746 [kcal/mol]      -2.14240658 [kJ/mol]
      Exch12(S^2)                   4.05073844 [mEh]       2.54187675 [kcal/mol]      10.63521232 [kJ/mol]

    Induction                     -70.37106572 [mEh]     -44.15851042 [kcal/mol]    -184.75920759 [kJ/mol]
      Ind20,r                     -89.16686682 [mEh]     -55.95305368 [kcal/mol]    -234.10757659 [kJ/mol]
      Ind22                        -9.82435553 [mEh]      -6.16487617 [kcal/mol]     -25.79384188 [kJ/mol]
      Exch-Ind20,r                 29.84977619 [mEh]      18.73101735 [kcal/mol]      78.37057660 [kJ/mol]
      Exch-Ind22                    3.28883165 [mEh]       2.06377302 [kcal/mol]       8.63482631 [kJ/mol]
      delta HF,r (2)               -4.51845121 [mEh]      -2.83537094 [kcal/mol]     -11.86319202 [kJ/mol]

    Dispersion                     -3.55257618 [mEh]      -2.22927521 [kcal/mol]      -9.32728747 [kJ/mol]
      Disp20                       -3.56287966 [mEh]      -2.23574074 [kcal/mol]      -9.35433927 [kJ/mol]
      Disp21                       -0.11139756 [mEh]      -0.06990303 [kcal/mol]      -0.29247426 [kJ/mol]
      Disp22 (SDQ)                 -0.05048952 [mEh]      -0.03168265 [kcal/mol]      -0.13256021 [kJ/mol]
      Disp22 (T)                   -0.21260684 [mEh]      -0.13341281 [kcal/mol]      -0.55819919 [kJ/mol]
      Est. Disp22 (T)              -0.23615968 [mEh]      -0.14819244 [kcal/mol]      -0.62003716 [kJ/mol]
      Exch-Disp20                   0.40835025 [mEh]       0.25624365 [kcal/mol]       1.07212344 [kJ/mol]

  Total HF                       -170.07532702 [mEh]    -106.72387896 [kcal/mol]    -446.53270958 [kJ/mol]
  Total SAPT0                    -173.22985644 [mEh]    -108.70337605 [kcal/mol]    -454.81492541 [kJ/mol]
  Total SAPT2                    -163.85593172 [mEh]    -102.82114949 [kcal/mol]    -430.20368945 [kJ/mol]
  Total SAPT2+                   -164.25397848 [mEh]    -103.07092760 [kcal/mol]    -431.24876109 [kJ/mol]

  Special recipe for scaled SAPT0 (see Manual):
    Electrostatics sSAPT0        -156.23057489 [mEh]     -98.03616584 [kcal/mol]    -410.18331786 [kJ/mol]
    Exchange sSAPT0                49.99078971 [mEh]      31.36969414 [kcal/mol]     131.25080029 [kJ/mol]
    Induction sSAPT0              -62.60998856 [mEh]     -39.28836097 [kcal/mol]    -164.38250231 [kJ/mol]
    Dispersion sSAPT0              -3.13776363 [mEh]      -1.96897640 [kcal/mol]      -8.23819726 [kJ/mol]
  Total sSAPT0                   -171.98753736 [mEh]    -107.92380907 [kcal/mol]    -451.55321713 [kJ/mol]
  --------------------------------------------------------------------------------------------------------

*** Psi4 exiting successfully. Buy a developer a beer!
