                               Psi4 1.9 release

  ==> Input File <==

--------------------------------------------------------------------------
MEMORY 60 GB

molecule dimer {
1 1
Li     0.000000     0.000000     0.000000
--
0 1
O      1.110215    -1.098530    -1.443038
H      1.598295    -1.954221    -1.278074
H      1.207274    -0.949489    -2.430059
O     -1.257824    -1.305400     0.453129
H     -2.221511    -1.279369     0.433411
H     -1.048101    -1.335662     1.390767
O     -0.051878     1.572965     1.008421
H      0.239274     2.445122     1.163302
H     -0.498900     1.346008     1.847540

units ang
no_reorient
no_com
symmetry c1
}

set {
basis        aug-cc-pVTZ
scf_type     df
}

energy("sapt2+")
--------------------------------------------------------------------------

  //              Dimer HF             //
    Molecular point group: c1
  Charge       = 1
  Multiplicity = 1
  Basis Set: AUG-CC-PVTZ
    Blend: AUG-CC-PVTZ
  Basis Set: (AUG-CC-PVTZ AUX)
    Blend: AUG-CC-PVTZ-JKFIT + DEF2-UNIVERSAL-JKFIT
  @DF-RHF Final Energy:  -235.53420092976876
    Total Energy =                       -235.5342009297687582
 Dipole X            :          4.0640345           -4.3833426           -0.3193081
 Dipole Y            :         15.7013167          -15.8270818           -0.1257651
 Dipole Z            :         -1.6381295            2.4093687            0.7712392
 Magnitude           :                                                    0.8441471
  //            Monomer A HF           //
    Molecular point group: c1
  Multiplicity = 1
  Basis Set: AUG-CC-PVTZ
    Blend: AUG-CC-PVTZ
  Basis Set: (AUG-CC-PVTZ AUX)
    Blend: AUG-CC-PVTZ-JKFIT + DEF2-UNIVERSAL-JKFIT
  @DF-RHF Final Energy:    -7.23638453063869
    Total Energy =                         -7.2363845306386896
  //            Monomer B HF           //
    Molecular point group: c1

    Geometry (in Angstrom), charge = 0, multiplicity = 1:

       Center              X                  Y                   Z               Mass
    ------------   -----------------  -----------------  -----------------  -----------------
      Gh(LI)          0.000000000000     0.000000000000     0.000000000000     7.016003436600
         O            1.110215000000    -1.098530000000    -1.443038000000    15.994914619570
         H            1.598295000000    -1.954221000000    -1.278074000000     1.007825032230
         H            1.207274000000    -0.949489000000    -2.430059000000     1.007825032230
         O           -1.257824000000    -1.305400000000     0.453129000000    15.994914619570
         H           -2.221511000000    -1.279369000000     0.433411000000     1.007825032230
         H           -1.048101000000    -1.335662000000     1.390767000000     1.007825032230
         O           -0.051878000000     1.572965000000     1.008421000000    15.994914619570
         H            0.239274000000     2.445122000000     1.163302000000     1.007825032230
         H           -0.498900000000     1.346008000000     1.847540000000     1.007825032230

  Charge       = 0
  Multiplicity = 1
  Basis Set: AUG-CC-PVTZ
    Blend: AUG-CC-PVTZ
  Basis Set: (AUG-CC-PVTZ AUX)
    Blend: AUG-CC-PVTZ-JKFIT + DEF2-UNIVERSAL-JKFIT

    Orbital Energies [Eh]
    ---------------------

    Doubly Occupied:

       1A    -20.550863     2A    -20.546198     3A    -20.545376
       4A     -1.340145     5A     -1.328657     6A     -1.303886
       7A     -0.700082     8A     -0.690140     9A     -0.665441
      10A     -0.571973    11A     -0.563341    12A     -0.541745
      13A     -0.494194    14A     -0.485837    15A     -0.477059

  @DF-RHF Final Energy:  -228.16256218672709

   => Energetics <=

    Nuclear Repulsion Energy =             72.7686685865882197
    One-Electron Energy =                -460.2525827317118114
    Two-Electron Energy =                 159.3213519583965194
    Total Energy =                       -228.1625621867270866
 Dipole X            :          4.1686684           -4.3833426           -0.2146741
 Dipole Y            :         15.8222825          -15.8270818           -0.0047993
 Dipole Z            :         -1.7378472            2.4093687            0.6715214
 Magnitude           :                                                    0.7050171

    SAPT Results
  --------------------------------------------------------------------------------------------------------
    Electrostatics               -113.02472593 [mEh]     -70.92408629 [kcal/mol]    -296.74637705 [kJ/mol]
      Elst10,r                   -122.38234263 [mEh]     -76.79607942 [kcal/mol]    -321.31479631 [kJ/mol]
      Elst12,r                      9.35761670 [mEh]       5.87199313 [kcal/mol]      24.56841925 [kJ/mol]

    Exchange                       36.49154758 [mEh]      22.89879182 [kcal/mol]      95.80854497 [kJ/mol]
      Exch10                       34.04917934 [mEh]      21.36618261 [kcal/mol]      89.39610804 [kJ/mol]
      Exch10(S^2)                  33.74137430 [mEh]      21.17303203 [kcal/mol]      88.58796602 [kJ/mol]
      Exch11(S^2)                  -0.37444901 [mEh]      -0.23497030 [kcal/mol]      -0.98311575 [kJ/mol]
      Exch12(S^2)                   2.81681725 [mEh]       1.76757951 [kcal/mol]       7.39555268 [kJ/mol]

    Induction                     -51.40188042 [mEh]     -32.25516693 [kcal/mol]    -134.95561845 [kJ/mol]
      Ind20,r                     -66.48103871 [mEh]     -41.71748162 [kcal/mol]    -174.54594310 [kJ/mol]
      Ind22                        -6.75545333 [mEh]      -4.23911097 [kcal/mol]     -17.73644028 [kJ/mol]
      Exch-Ind20,r                 22.38476495 [mEh]      14.04665207 [kcal/mol]      58.77119227 [kJ/mol]
      Exch-Ind22                    2.27462203 [mEh]       1.42734687 [kcal/mol]       5.97201931 [kJ/mol]
      delta HF,r (2)               -2.82477535 [mEh]      -1.77257329 [kcal/mol]      -7.41644665 [kJ/mol]

    Dispersion                     -2.24734069 [mEh]      -1.41022758 [kcal/mol]      -5.90039217 [kJ/mol]
      Disp20                       -2.21707529 [mEh]      -1.39123575 [kcal/mol]      -5.82093036 [kJ/mol]
      Disp21                       -0.09634155 [mEh]      -0.06045524 [kcal/mol]      -0.25294471 [kJ/mol]
      Disp22 (SDQ)                 -0.03373530 [mEh]      -0.02116922 [kcal/mol]      -0.08857202 [kJ/mol]
      Disp22 (T)                   -0.12476267 [mEh]      -0.07828976 [kcal/mol]      -0.32756436 [kJ/mol]
      Est. Disp22 (T)              -0.14642462 [mEh]      -0.09188283 [kcal/mol]      -0.38443778 [kJ/mol]
      Exch-Disp20                   0.24623606 [mEh]       0.15451546 [kcal/mol]       0.64649268 [kJ/mol]

  Total HF                       -135.25421240 [mEh]     -84.87329965 [kcal/mol]    -355.10988574 [kJ/mol]
  Total SAPT0                    -137.22505163 [mEh]     -86.11001994 [kcal/mol]    -360.28432342 [kJ/mol]
  Total SAPT2                    -129.90589800 [mEh]     -81.51718169 [kcal/mol]    -341.06788821 [kJ/mol]
  Total SAPT2+                   -130.18239946 [mEh]     -81.69068898 [kcal/mol]    -341.79384271 [kJ/mol]

  Special recipe for scaled SAPT0 (see Manual):
    Electrostatics sSAPT0        -122.38234263 [mEh]     -76.79607942 [kcal/mol]    -321.31479631 [kJ/mol]
    Exchange sSAPT0                34.04917934 [mEh]      21.36618261 [kcal/mol]      89.39610804 [kJ/mol]
    Induction sSAPT0              -46.30282980 [mEh]     -29.05546436 [kcal/mol]    -121.56806288 [kJ/mol]
    Dispersion sSAPT0              -1.96403871 [mEh]      -1.23245290 [kcal/mol]      -5.15658293 [kJ/mol]
  Total sSAPT0                   -136.60003180 [mEh]     -85.71781407 [kcal/mol]    -358.64333408 [kJ/mol]
  --------------------------------------------------------------------------------------------------------

*** Psi4 exiting successfully. Buy a developer a beer!
