                               Psi4 1.9 release

  ==> Input File <==

--------------------------------------------------------------------------
MEMORY 60 GB

molecule dimer {
1 1
Li     0.000000     0.000000     0.000000
--
0 1
O     -1.715018     0.035203     0.485956
H     -1.936750    -0.119626     1.364263
H     -2.298787     0.693310     0.156393
O      1.091749    -0.253037     1.609196
H      1.070284    -1.120083     2.020331
H      0.767319     0.430326     2.249368
O      0.246191     2.036729    -0.098373
H      0.467254     2.250333     0.806838
H      0.917922     2.460712    -0.640110
O      0.268445    -0.553088    -1.903107
H     -0.423728    -0.525899    -2.557714
H      0.710424    -1.402795    -2.022738

units ang
no_reorient
no_com
symmetry c1
}

set {
basis        aug-cc-pVTZ
scf_type     df
}

energy("sapt2+")
--------------------------------------------------------------------------

  //              Dimer HF             //
    Molecular point group: c1
  Charge       = 1
  Multiplicity = 1
  Basis Set: AUG-CC-PVTZ
    Blend: AUG-CC-PVTZ
  Basis Set: (AUG-CC-PVTZ AUX)
    Blend: AUG-CC-PVTZ-JKFIT + DEF2-UNIVERSAL-JKFIT
  @DF-RHF Final Energy:  -311.62192689079825
    Total Energy =                       -311.6219268907982496
 Dipole X            :          2.6222141           -3.0143513           -0.3921372
 Dipole Y            :        -23.9504862           24.1747637            0.2242774
 Dipole Z            :         -3.2254544            4.0175710            0.7921165
 Magnitude           :                                                    0.9118775
  //            Monomer A HF           //
    Molecular point group: c1
  Multiplicity = 1
  Basis Set: AUG-CC-PVTZ
    Blend: AUG-CC-PVTZ
  Basis Set: (AUG-CC-PVTZ AUX)
    Blend: AUG-CC-PVTZ-JKFIT + DEF2-UNIVERSAL-JKFIT
  @DF-RHF Final Energy:    -7.23638490807380
    Total Energy =                         -7.2363849080737968
  //            Monomer B HF           //
    Molecular point group: c1

    Geometry (in Angstrom), charge = 0, multiplicity = 1:

       Center              X                  Y                   Z               Mass
    ------------   -----------------  -----------------  -----------------  -----------------
      Gh(LI)          0.000000000000     0.000000000000     0.000000000000     7.016003436600
         O           -1.715018000000     0.035203000000     0.485956000000    15.994914619570
         H           -1.936750000000    -0.119626000000     1.364263000000     1.007825032230
         H           -2.298787000000     0.693310000000     0.156393000000     1.007825032230
         O            1.091749000000    -0.253037000000     1.609196000000    15.994914619570
         H            1.070284000000    -1.120083000000     2.020331000000     1.007825032230
         H            0.767319000000     0.430326000000     2.249368000000     1.007825032230
         O            0.246191000000     2.036729000000    -0.098373000000    15.994914619570
         H            0.467254000000     2.250333000000     0.806838000000     1.007825032230
         H            0.917922000000     2.460712000000    -0.640110000000     1.007825032230
         O            0.268445000000    -0.553088000000    -1.903107000000    15.994914619570
         H           -0.423728000000    -0.525899000000    -2.557714000000     1.007825032230
         H            0.710424000000    -1.402795000000    -2.022738000000     1.007825032230

  Charge       = 0
  Multiplicity = 1
  Basis Set: AUG-CC-PVTZ
    Blend: AUG-CC-PVTZ
  Basis Set: (AUG-CC-PVTZ AUX)
    Blend: AUG-CC-PVTZ-JKFIT + DEF2-UNIVERSAL-JKFIT

    Orbital Energies [Eh]
    ---------------------

    Doubly Occupied:

       1A    -20.546786     2A    -20.531788     3A    -20.530921
       4A    -20.525484     5A     -1.333429     6A     -1.321726
       7A     -1.317064     8A     -1.315728     9A     -0.707028
      10A     -0.702440    11A     -0.684409    12A     -0.682475
      13A     -0.561038    14A     -0.548449    15A     -0.542539
      16A     -0.539100    17A     -0.489758    18A     -0.472934
      19A     -0.471489    20A     -0.469755

  @DF-RHF Final Energy:  -304.21571174967977

   => Energetics <=

    Nuclear Repulsion Energy =            134.2777338087250598
    One-Electron Energy =                -688.3982042797972554
    Two-Electron Energy =                 249.9047587213923975
    Total Energy =                       -304.2157117496797696
 Dipole X            :          2.7106208           -3.0143513           -0.3037304
 Dipole Y            :        -24.1508151           24.1747637            0.0239485
 Dipole Z            :         -3.3122244            4.0175710            0.7053465
 Magnitude           :                                                    0.7683355

    SAPT Results
  --------------------------------------------------------------------------------------------------------
    Electrostatics               -144.98954993 [mEh]     -90.98231618 [kcal/mol]    -380.67001089 [kJ/mol]
      Elst10,r                   -156.10760011 [mEh]     -97.95899800 [kcal/mol]    -409.86044762 [kJ/mol]
      Elst12,r                     11.11805018 [mEh]       6.97668182 [kcal/mol]      29.19043673 [kJ/mol]

    Exchange                       48.71020923 [mEh]      30.56611776 [kcal/mol]     127.88863672 [kJ/mol]
      Exch10                       45.46078378 [mEh]      28.52707250 [kcal/mol]     119.35727136 [kJ/mol]
      Exch10(S^2)                  44.91088117 [mEh]      28.18200341 [kcal/mol]     117.91350226 [kJ/mol]
      Exch11(S^2)                  -0.66249156 [mEh]      -0.41571973 [kcal/mol]      -1.73937134 [kJ/mol]
      Exch12(S^2)                   3.91191701 [mEh]       2.45476499 [kcal/mol]      10.27073671 [kJ/mol]

    Induction                     -65.36151428 [mEh]     -41.01496943 [kcal/mol]    -171.60663210 [kJ/mol]
      Ind20,r                     -82.71432897 [mEh]     -51.90402505 [kcal/mol]    -217.16644080 [kJ/mol]
      Ind22                        -9.31859360 [mEh]      -5.84750577 [kcal/mol]     -24.46596413 [kJ/mol]
      Exch-Ind20,r                 27.87588267 [mEh]      17.49238046 [kcal/mol]      73.18811986 [kJ/mol]
      Exch-Ind22                    3.14049603 [mEh]       1.97069101 [kcal/mol]       8.24537119 [kJ/mol]
      delta HF,r (2)               -4.34497040 [mEh]      -2.72651009 [kcal/mol]     -11.40771822 [kJ/mol]

    Dispersion                     -3.19397363 [mEh]      -2.00424871 [kcal/mol]      -8.38577661 [kJ/mol]
      Disp20                       -3.16746208 [mEh]      -1.98761247 [kcal/mol]      -8.31617055 [kJ/mol]
      Disp21                       -0.12397447 [mEh]      -0.07779516 [kcal/mol]      -0.32549493 [kJ/mol]
      Disp22 (SDQ)                 -0.05121456 [mEh]      -0.03213762 [kcal/mol]      -0.13446381 [kJ/mol]
      Disp22 (T)                   -0.18454452 [mEh]      -0.11580344 [kcal/mol]      -0.48452158 [kJ/mol]
      Est. Disp22 (T)              -0.21034319 [mEh]      -0.13199234 [kcal/mol]      -0.55225597 [kJ/mol]
      Exch-Disp20                   0.35902068 [mEh]       0.22528888 [kcal/mol]       0.94260865 [kJ/mol]

  Total HF                       -169.83023304 [mEh]    -106.57008017 [kcal/mol]    -445.88921543 [kJ/mol]
  Total SAPT0                    -172.63867445 [mEh]    -108.33240376 [kcal/mol]    -453.26277733 [kJ/mol]
  Total SAPT2                    -164.44929638 [mEh]    -103.19349144 [kcal/mol]    -431.76156817 [kJ/mol]
  Total SAPT2+                   -164.83482860 [mEh]    -103.43541656 [kcal/mol]    -432.77378287 [kJ/mol]

  Special recipe for scaled SAPT0 (see Manual):
    Electrostatics sSAPT0        -156.10760011 [mEh]     -97.95899800 [kcal/mol]    -409.86044762 [kJ/mol]
    Exchange sSAPT0                45.46078378 [mEh]      28.52707250 [kcal/mol]     119.35727136 [kJ/mol]
    Induction sSAPT0              -58.14686524 [mEh]     -36.48770881 [kcal/mol]    -152.66457367 [kJ/mol]
    Dispersion sSAPT0              -2.79509139 [mEh]      -1.75394633 [kcal/mol]      -7.33851144 [kJ/mol]
  Total sSAPT0                   -171.58877297 [mEh]    -107.67358063 [kcal/mol]    -450.50626137 [kJ/mol]
  --------------------------------------------------------------------------------------------------------

*** Psi4 exiting successfully. Buy a developer a beer!
