                               Psi4 1.9 release

  ==> Input File <==

--------------------------------------------------------------------------
MEMORY 60 GB

molecule dimer {
1 1
Li     0.000000     0.000000     0.000000
--
0 1
O      1.362177     0.494903    -1.256822
H      1.833323    -0.139138    -1.763691
H      2.031082     1.092765    -0.979248
O     -1.382938    -0.607154    -1.085086
H     -1.865008     0.071796    -1.477591
H     -1.178693    -1.330940    -1.688702
O      0.262721    -1.170129     1.291731
H      1.058433    -1.126622     1.806015
H      0.186388    -2.100896     1.196103
O     -0.396836     1.829554     0.256520
H     -0.272323     2.420521     0.947354
H     -0.490326     2.381443    -0.505406

units ang
no_reorient
no_com
symmetry c1
}

set {
basis        aug-cc-pVTZ
scf_type     df
}

energy("sapt2+")
--------------------------------------------------------------------------

  //              Dimer HF             //
    Molecular point group: c1
  Charge       = 1
  Multiplicity = 1
  Basis Set: AUG-CC-PVTZ
    Blend: AUG-CC-PVTZ
  Basis Set: (AUG-CC-PVTZ AUX)
    Blend: AUG-CC-PVTZ-JKFIT + DEF2-UNIVERSAL-JKFIT
  @DF-RHF Final Energy:  -311.62576365845632
    Total Energy =                       -311.6257636584563215
 Dipole X            :          0.9510221            0.1206930            1.0717151
 Dipole Y            :        -10.4781800           10.6700003            0.1918203
 Dipole Z            :         15.9622929          -16.6568435           -0.6945507
 Magnitude           :                                                    1.2914213
  //            Monomer A HF           //
    Molecular point group: c1
  Multiplicity = 1
  Basis Set: AUG-CC-PVTZ
    Blend: AUG-CC-PVTZ
  Basis Set: (AUG-CC-PVTZ AUX)
    Blend: AUG-CC-PVTZ-JKFIT + DEF2-UNIVERSAL-JKFIT
  @DF-RHF Final Energy:    -7.23638496583007
    Total Energy =                         -7.2363849658300738
  //            Monomer B HF           //
    Molecular point group: c1

    Geometry (in Angstrom), charge = 0, multiplicity = 1:

       Center              X                  Y                   Z               Mass
    ------------   -----------------  -----------------  -----------------  -----------------
      Gh(LI)          0.000000000000     0.000000000000     0.000000000000     7.016003436600
         O            1.362177000000     0.494903000000    -1.256822000000    15.994914619570
         H            1.833323000000    -0.139138000000    -1.763691000000     1.007825032230
         H            2.031082000000     1.092765000000    -0.979248000000     1.007825032230
         O           -1.382938000000    -0.607154000000    -1.085086000000    15.994914619570
         H           -1.865008000000     0.071796000000    -1.477591000000     1.007825032230
         H           -1.178693000000    -1.330940000000    -1.688702000000     1.007825032230
         O            0.262721000000    -1.170129000000     1.291731000000    15.994914619570
         H            1.058433000000    -1.126622000000     1.806015000000     1.007825032230
         H            0.186388000000    -2.100896000000     1.196103000000     1.007825032230
         O           -0.396836000000     1.829554000000     0.256520000000    15.994914619570
         H           -0.272323000000     2.420521000000     0.947354000000     1.007825032230
         H           -0.490326000000     2.381443000000    -0.505406000000     1.007825032230

  Charge       = 0
  Multiplicity = 1
  Basis Set: AUG-CC-PVTZ
    Blend: AUG-CC-PVTZ
  Basis Set: (AUG-CC-PVTZ AUX)
    Blend: AUG-CC-PVTZ-JKFIT + DEF2-UNIVERSAL-JKFIT

    Orbital Energies [Eh]
    ---------------------

    Doubly Occupied:

       1A    -20.532303     2A    -20.527475     3A    -20.526354
       4A    -20.516336     5A     -1.337227     6A     -1.330366
       7A     -1.325821     8A     -1.312592     9A     -0.704886
      10A     -0.697453    11A     -0.692838    12A     -0.676849
      13A     -0.573905    14A     -0.554538    15A     -0.541328
      16A     -0.519505    17A     -0.485193    18A     -0.474743
      19A     -0.468034    20A     -0.461600

  @DF-RHF Final Energy:  -304.21161989195650

   => Energetics <=

    Nuclear Repulsion Energy =            138.2706255479355661
    One-Electron Energy =                -696.4457922134328101
    Two-Electron Energy =                 253.9635467735407701
    Total Energy =                       -304.2116198919565022
 Dipole X            :          0.9017014            0.1206930            1.0223944
 Dipole Y            :        -10.5315707           10.6700003            0.1384296
 Dipole Z            :         16.1228555          -16.6568435           -0.5339881
 Magnitude           :                                                    1.1617213

    SAPT Results
  --------------------------------------------------------------------------------------------------------
    Electrostatics               -157.30952386 [mEh]     -98.71321654 [kcal/mol]    -413.01609800 [kJ/mol]
      Elst10,r                   -170.61771362 [mEh]    -107.06423169 [kcal/mol]    -447.95674540 [kJ/mol]
      Elst12,r                     13.30818976 [mEh]       8.35101515 [kcal/mol]      34.94064740 [kJ/mol]

    Exchange                       61.93755382 [mEh]      38.86640181 [kcal/mol]     162.61702515 [kJ/mol]
      Exch10                       58.59925309 [mEh]      36.77158647 [kcal/mol]     153.85231780 [kJ/mol]
      Exch10(S^2)                  57.68667797 [mEh]      36.19893694 [kcal/mol]     151.45635215 [kJ/mol]
      Exch11(S^2)                  -0.94512566 [mEh]      -0.59307531 [kcal/mol]      -2.48142709 [kJ/mol]
      Exch12(S^2)                   4.28342639 [mEh]       2.68789064 [kcal/mol]      11.24613445 [kJ/mol]

    Induction                     -72.33035624 [mEh]     -45.38798378 [kcal/mol]    -189.90332414 [kJ/mol]
      Ind20,r                     -93.92715697 [mEh]     -58.94018085 [kcal/mol]    -246.60571666 [kJ/mol]
      Ind22                       -10.21656489 [mEh]      -6.41099126 [kcal/mol]     -26.82358742 [kJ/mol]
      Exch-Ind20,r                 33.34109079 [mEh]      20.92185034 [kcal/mol]      87.53702182 [kJ/mol]
      Exch-Ind22                    3.62654879 [mEh]       2.27569372 [kcal/mol]       9.52150254 [kJ/mol]
      delta HF,r (2)               -5.15427396 [mEh]      -3.23435574 [kcal/mol]     -13.53254442 [kJ/mol]

    Dispersion                     -3.94930062 [mEh]      -2.47822355 [kcal/mol]     -10.36888734 [kJ/mol]
      Disp20                       -3.98357546 [mEh]      -2.49973134 [kcal/mol]     -10.45887593 [kJ/mol]
      Disp21                       -0.13035182 [mEh]      -0.08179700 [kcal/mol]      -0.34223866 [kJ/mol]
      Disp22 (SDQ)                 -0.05145982 [mEh]      -0.03229153 [kcal/mol]      -0.13510774 [kJ/mol]
      Disp22 (T)                   -0.22934444 [mEh]      -0.14391581 [kcal/mol]      -0.60214374 [kJ/mol]
      Est. Disp22 (T)              -0.25603490 [mEh]      -0.16066433 [kcal/mol]      -0.67221955 [kJ/mol]
      Exch-Disp20                   0.47212139 [mEh]       0.29626064 [kcal/mol]       1.23955454 [kJ/mol]

  Total HF                       -177.75880067 [mEh]    -111.54533147 [kcal/mol]    -466.70566686 [kJ/mol]
  Total SAPT0                    -181.27025474 [mEh]    -113.74880216 [kcal/mol]    -475.92498825 [kJ/mol]
  Total SAPT2                    -171.21378035 [mEh]    -107.43826921 [kcal/mol]    -449.52171837 [kJ/mol]
  Total SAPT2+                   -171.65162689 [mEh]    -107.71302207 [kcal/mol]    -450.67128432 [kJ/mol]

  Special recipe for scaled SAPT0 (see Manual):
    Electrostatics sSAPT0        -170.61771362 [mEh]    -107.06423169 [kcal/mol]    -447.95674540 [kJ/mol]
    Exchange sSAPT0                58.59925309 [mEh]      36.77158647 [kcal/mol]     153.85231780 [kJ/mol]
    Induction sSAPT0              -64.13285722 [mEh]     -40.24397549 [kcal/mol]    -168.38079343 [kJ/mol]
    Dispersion sSAPT0              -3.48869156 [mEh]      -2.18918700 [kcal/mol]      -9.15955842 [kJ/mol]
  Total sSAPT0                   -179.64000931 [mEh]    -112.72580771 [kcal/mol]    -471.64477946 [kJ/mol]
  --------------------------------------------------------------------------------------------------------

*** Psi4 exiting successfully. Buy a developer a beer!
