                               Psi4 1.9 release

  ==> Input File <==

--------------------------------------------------------------------------
MEMORY 60 GB

molecule dimer {
1 1
Li     0.000000     0.000000     0.000000
--
0 1
O      0.308611     1.799941     0.055027
H      1.189178     2.084602    -0.029819
H     -0.214343     2.315908    -0.579745
O     -1.239702    -0.176525     1.570107
H     -1.160882    -1.124504     1.682038
H     -1.287511     0.291488     2.423735
O     -1.080482    -0.705916    -1.358061
H     -1.739894    -0.042264    -1.524104
H     -1.505441    -1.545786    -1.482370
O      1.386436    -1.321672    -0.001936
H      1.809813    -1.499437     0.850115
H      2.170025    -1.008615    -0.549659

units ang
no_reorient
no_com
symmetry c1
}

set {
basis        aug-cc-pVTZ
scf_type     df
}

energy("sapt2+")
--------------------------------------------------------------------------

  //              Dimer HF             //
    Molecular point group: c1
  Charge       = 1
  Multiplicity = 1
  Basis Set: AUG-CC-PVTZ
    Blend: AUG-CC-PVTZ
  Basis Set: (AUG-CC-PVTZ AUX)
    Blend: AUG-CC-PVTZ-JKFIT + DEF2-UNIVERSAL-JKFIT
  @DF-RHF Final Energy:  -311.62006212349752
    Total Energy =                       -311.6200621234975188
 Dipole X            :         11.1126744          -10.8473133            0.2653611
 Dipole Y            :          7.2635256           -7.1091194            0.1544061
 Dipole Z            :         -5.2982941            5.5015351            0.2032410
 Magnitude           :                                                    0.3681911
  //            Monomer A HF           //
    Molecular point group: c1
  Multiplicity = 1
  Basis Set: AUG-CC-PVTZ
    Blend: AUG-CC-PVTZ
  Basis Set: (AUG-CC-PVTZ AUX)
    Blend: AUG-CC-PVTZ-JKFIT + DEF2-UNIVERSAL-JKFIT
  @DF-RHF Final Energy:    -7.23638493866670
    Total Energy =                         -7.2363849386666956
  //            Monomer B HF           //
    Molecular point group: c1

    Geometry (in Angstrom), charge = 0, multiplicity = 1:

       Center              X                  Y                   Z               Mass
    ------------   -----------------  -----------------  -----------------  -----------------
      Gh(LI)          0.000000000000     0.000000000000     0.000000000000     7.016003436600
         O            0.308611000000     1.799941000000     0.055027000000    15.994914619570
         H            1.189178000000     2.084602000000    -0.029819000000     1.007825032230
         H           -0.214343000000     2.315908000000    -0.579745000000     1.007825032230
         O           -1.239702000000    -0.176525000000     1.570107000000    15.994914619570
         H           -1.160882000000    -1.124504000000     1.682038000000     1.007825032230
         H           -1.287511000000     0.291488000000     2.423735000000     1.007825032230
         O           -1.080482000000    -0.705916000000    -1.358061000000    15.994914619570
         H           -1.739894000000    -0.042264000000    -1.524104000000     1.007825032230
         H           -1.505441000000    -1.545786000000    -1.482370000000     1.007825032230
         O            1.386436000000    -1.321672000000    -0.001936000000    15.994914619570
         H            1.809813000000    -1.499437000000     0.850115000000     1.007825032230
         H            2.170025000000    -1.008615000000    -0.549659000000     1.007825032230

  Charge       = 0
  Multiplicity = 1
  Basis Set: AUG-CC-PVTZ
    Blend: AUG-CC-PVTZ
  Basis Set: (AUG-CC-PVTZ AUX)
    Blend: AUG-CC-PVTZ-JKFIT + DEF2-UNIVERSAL-JKFIT

    Orbital Energies [Eh]
    ---------------------

    Doubly Occupied:

       1A    -20.543246     2A    -20.534235     3A    -20.526996
       4A    -20.525071     5A     -1.326735     6A     -1.317807
       7A     -1.311155     8A     -1.306011     9A     -0.698029
      10A     -0.689566    11A     -0.686799    12A     -0.666440
      13A     -0.565047    14A     -0.553019    15A     -0.532197
      16A     -0.525111    17A     -0.484254    18A     -0.474019
      19A     -0.468400    20A     -0.465223

  @DF-RHF Final Energy:  -304.21357255522071

   => Energetics <=

    Nuclear Repulsion Energy =            134.6266285569456898
    One-Electron Energy =                -689.2816770952632623
    Two-Electron Energy =                 250.4414759830968649
    Total Energy =                       -304.2135725552207077
 Dipole X            :         11.1800725          -10.8473133            0.3327592
 Dipole Y            :          7.2947039           -7.1091194            0.1855844
 Dipole Z            :         -5.3341743            5.5015351            0.1673608
 Magnitude           :                                                    0.4161489

    SAPT Results
  --------------------------------------------------------------------------------------------------------
    Electrostatics               -146.94580771 [mEh]     -92.20988647 [kcal/mol]    -385.80616498 [kJ/mol]
      Elst10,r                   -158.37979692 [mEh]     -99.38482302 [kcal/mol]    -415.82609952 [kJ/mol]
      Elst12,r                     11.43398921 [mEh]       7.17493655 [kcal/mol]      30.01993454 [kJ/mol]

    Exchange                       54.59609523 [mEh]      34.25956699 [kcal/mol]     143.34202827 [kJ/mol]
      Exch10                       51.01081407 [mEh]      32.00976909 [kcal/mol]     133.92887388 [kJ/mol]
      Exch10(S^2)                  50.31889672 [mEh]      31.57558440 [kcal/mol]     132.11224513 [kJ/mol]
      Exch11(S^2)                  -0.81463852 [mEh]      -0.51119339 [kcal/mol]      -2.13883315 [kJ/mol]
      Exch12(S^2)                   4.39991968 [mEh]       2.76099129 [kcal/mol]      11.55198754 [kJ/mol]

    Induction                     -69.32748733 [mEh]     -43.50365509 [kcal/mol]    -182.01929291 [kJ/mol]
      Ind20,r                     -88.94406136 [mEh]     -55.81324114 [kcal/mol]    -233.52260093 [kJ/mol]
      Ind22                       -10.09417057 [mEh]      -6.33418766 [kcal/mol]     -26.50224117 [kJ/mol]
      Exch-Ind20,r                 30.86053002 [mEh]      19.36527496 [kcal/mol]      81.02431042 [kJ/mol]
      Exch-Ind22                    3.50232999 [mEh]       2.19774525 [kcal/mol]       9.19536613 [kJ/mol]
      delta HF,r (2)               -4.65211542 [mEh]      -2.91924650 [kcal/mol]     -12.21412736 [kJ/mol]

    Dispersion                     -3.52398081 [mEh]      -2.21133134 [kcal/mol]      -9.25221034 [kJ/mol]
      Disp20                       -3.52070972 [mEh]      -2.20927870 [kcal/mol]      -9.24362209 [kJ/mol]
      Disp21                       -0.12981143 [mEh]      -0.08145790 [kcal/mol]      -0.34081986 [kJ/mol]
      Disp22 (SDQ)                 -0.05638955 [mEh]      -0.03538498 [kcal/mol]      -0.14805074 [kJ/mol]
      Disp22 (T)                   -0.20293640 [mEh]      -0.12734452 [kcal/mol]      -0.53280945 [kJ/mol]
      Est. Disp22 (T)              -0.23276489 [mEh]      -0.14606217 [kcal/mol]      -0.61112413 [kJ/mol]
      Exch-Disp20                   0.41569477 [mEh]       0.26085241 [kcal/mol]       1.09140648 [kJ/mol]

  Total HF                       -170.10462961 [mEh]    -106.74226661 [kcal/mol]    -446.60964351 [kJ/mol]
  Total SAPT0                    -173.20964455 [mEh]    -108.69069291 [kcal/mol]    -454.76185912 [kJ/mol]
  Total SAPT2                    -164.78221475 [mEh]    -103.40240087 [kcal/mol]    -432.63564523 [kJ/mol]
  Total SAPT2+                   -165.20118062 [mEh]    -103.66530592 [kcal/mol]    -433.73563997 [kJ/mol]

  Special recipe for scaled SAPT0 (see Manual):
    Electrostatics sSAPT0        -158.37979692 [mEh]     -99.38482302 [kcal/mol]    -415.82609952 [kJ/mol]
    Exchange sSAPT0                51.01081407 [mEh]      32.00976909 [kcal/mol]     133.92887388 [kJ/mol]
    Induction sSAPT0              -61.44500447 [mEh]     -38.55732242 [kcal/mol]    -161.32383702 [kJ/mol]
    Dispersion sSAPT0              -3.08762985 [mEh]      -1.93751698 [kcal/mol]      -8.10657105 [kJ/mol]
  Total sSAPT0                   -171.90161717 [mEh]    -107.86989333 [kcal/mol]    -451.32763371 [kJ/mol]
  --------------------------------------------------------------------------------------------------------

*** Psi4 exiting successfully. Buy a developer a beer!
