                               Psi4 1.9 release

  ==> Input File <==

--------------------------------------------------------------------------
MEMORY 60 GB

molecule dimer {
1 1
Li     0.000000     0.000000     0.000000
--
0 1
O     -0.807644    -1.260844     1.138757
H     -1.635519    -1.682311     1.327527
H     -0.286736    -1.509910     1.936379
O      1.759330    -0.684963    -0.247588
H      2.421120    -1.170058     0.269103
H      2.085332    -0.643141    -1.168976
O      0.088216     1.807821     0.564857
H      0.651141     1.422611     1.287139
H     -0.618624     2.368710     0.980290
O     -1.057908    -0.426688    -1.597347
H     -0.748099    -0.459222    -2.547429
H     -1.560666    -1.268597    -1.484747

units ang
no_reorient
no_com
symmetry c1
}

set {
basis        aug-cc-pVTZ
scf_type     df
}

energy("sapt2+")
--------------------------------------------------------------------------

  //              Dimer HF             //
    Molecular point group: c1
  Charge       = 1
  Multiplicity = 1
  Basis Set: AUG-CC-PVTZ
    Blend: AUG-CC-PVTZ
  Basis Set: (AUG-CC-PVTZ AUX)
    Blend: AUG-CC-PVTZ-JKFIT + DEF2-UNIVERSAL-JKFIT
  @DF-RHF Final Energy:  -311.61312385140536
    Total Energy =                       -311.6131238514053621
 Dipole X            :         -0.0878209            0.3097280            0.2219071
 Dipole Y            :         12.7563790          -14.0960530           -1.3396739
 Dipole Z            :          1.5697676           -1.0039775            0.5657901
 Magnitude           :                                                    1.4710838
  //            Monomer A HF           //
    Molecular point group: c1
  Multiplicity = 1
  Basis Set: AUG-CC-PVTZ
    Blend: AUG-CC-PVTZ
  Basis Set: (AUG-CC-PVTZ AUX)
    Blend: AUG-CC-PVTZ-JKFIT + DEF2-UNIVERSAL-JKFIT
  @DF-RHF Final Energy:    -7.23638497361794
    Total Energy =                         -7.2363849736179429
  //            Monomer B HF           //
    Molecular point group: c1

    Geometry (in Angstrom), charge = 0, multiplicity = 1:

       Center              X                  Y                   Z               Mass
    ------------   -----------------  -----------------  -----------------  -----------------
      Gh(LI)          0.000000000000     0.000000000000     0.000000000000     7.016003436600
         O           -0.807644000000    -1.260844000000     1.138757000000    15.994914619570
         H           -1.635519000000    -1.682311000000     1.327527000000     1.007825032230
         H           -0.286736000000    -1.509910000000     1.936379000000     1.007825032230
         O            1.759330000000    -0.684963000000    -0.247588000000    15.994914619570
         H            2.421120000000    -1.170058000000     0.269103000000     1.007825032230
         H            2.085332000000    -0.643141000000    -1.168976000000     1.007825032230
         O            0.088216000000     1.807821000000     0.564857000000    15.994914619570
         H            0.651141000000     1.422611000000     1.287139000000     1.007825032230
         H           -0.618624000000     2.368710000000     0.980290000000     1.007825032230
         O           -1.057908000000    -0.426688000000    -1.597347000000    15.994914619570
         H           -0.748099000000    -0.459222000000    -2.547429000000     1.007825032230
         H           -1.560666000000    -1.268597000000    -1.484747000000     1.007825032230

  Charge       = 0
  Multiplicity = 1
  Basis Set: AUG-CC-PVTZ
    Blend: AUG-CC-PVTZ
  Basis Set: (AUG-CC-PVTZ AUX)
    Blend: AUG-CC-PVTZ-JKFIT + DEF2-UNIVERSAL-JKFIT

    Orbital Energies [Eh]
    ---------------------

    Doubly Occupied:

       1A    -20.546837     2A    -20.543035     3A    -20.535577
       4A    -20.526383     5A     -1.329898     6A     -1.318191
       7A     -1.298199     8A     -1.287881     9A     -0.690330
      10A     -0.684053    11A     -0.661158    12A     -0.659388
      13A     -0.570978    14A     -0.544550    15A     -0.537075
      16A     -0.522050    17A     -0.491991    18A     -0.480014
      19A     -0.465951    20A     -0.458264

  @DF-RHF Final Energy:  -304.20699505095126

   => Energetics <=

    Nuclear Repulsion Energy =            133.3371531083281809
    One-Electron Energy =                -686.7846821890645970
    Two-Electron Energy =                 249.2405340297852092
    Total Energy =                       -304.2069950509512637
 Dipole X            :         -0.0932243            0.3097280            0.2165037
 Dipole Y            :         12.9225489          -14.0960530           -1.1735040
 Dipole Z            :          1.5416211           -1.0039775            0.5376437
 Magnitude           :                                                    1.3088339

    SAPT Results
  --------------------------------------------------------------------------------------------------------
    Electrostatics               -139.85996490 [mEh]     -87.76345298 [kcal/mol]    -367.20228726 [kJ/mol]
      Elst10,r                   -152.33366425 [mEh]     -95.59081749 [kcal/mol]    -399.95198039 [kJ/mol]
      Elst12,r                     12.47369935 [mEh]       7.82736451 [kcal/mol]      32.74969313 [kJ/mol]

    Exchange                       48.42125747 [mEh]      30.38479780 [kcal/mol]     127.12999398 [kJ/mol]
      Exch10                       45.21322579 [mEh]      28.37172753 [kcal/mol]     118.70730797 [kJ/mol]
      Exch10(S^2)                  44.66615385 [mEh]      28.02843470 [kcal/mol]     117.27097078 [kJ/mol]
      Exch11(S^2)                  -0.74159512 [mEh]      -0.46535796 [kcal/mol]      -1.94705771 [kJ/mol]
      Exch12(S^2)                   3.94962680 [mEh]       2.47842823 [kcal/mol]      10.36974372 [kJ/mol]

    Induction                     -69.19555951 [mEh]     -43.42086914 [kcal/mol]    -181.67291646 [kJ/mol]
      Ind20,r                     -85.90022369 [mEh]     -53.90320417 [kcal/mol]    -225.53100623 [kJ/mol]
      Ind22                        -9.66523886 [mEh]      -6.06502895 [kcal/mol]     -25.37608114 [kJ/mol]
      Exch-Ind20,r                 27.48977173 [mEh]      17.25009219 [kcal/mol]      72.17438573 [kJ/mol]
      Exch-Ind22                    3.09306773 [mEh]       1.94092930 [kcal/mol]       8.12084821 [kJ/mol]
      delta HF,r (2)               -4.21293642 [mEh]      -2.64365751 [kcal/mol]     -11.06106304 [kJ/mol]

    Dispersion                     -3.35945523 [mEh]      -2.10808998 [kcal/mol]      -8.82024849 [kJ/mol]
      Disp20                       -3.34932425 [mEh]      -2.10173270 [kcal/mol]      -8.79364961 [kJ/mol]
      Disp21                       -0.11035410 [mEh]      -0.06924825 [kcal/mol]      -0.28973466 [kJ/mol]
      Disp22 (SDQ)                 -0.04969571 [mEh]      -0.03118453 [kcal/mol]      -0.13047606 [kJ/mol]
      Disp22 (T)                   -0.20254998 [mEh]      -0.12710203 [kcal/mol]      -0.53179490 [kJ/mol]
      Est. Disp22 (T)              -0.22492426 [mEh]      -0.14114210 [kcal/mol]      -0.59053856 [kJ/mol]
      Exch-Disp20                   0.37484309 [mEh]       0.23521759 [kcal/mol]       0.98415040 [kJ/mol]

  Total HF                       -169.74382684 [mEh]    -106.51585945 [kcal/mol]    -445.66235596 [kJ/mol]
  Total SAPT0                    -172.71830800 [mEh]    -108.38237456 [kcal/mol]    -453.47185517 [kJ/mol]
  Total SAPT2                    -163.60874810 [mEh]    -102.66603943 [kcal/mol]    -429.55470896 [kJ/mol]
  Total SAPT2+                   -163.99372217 [mEh]    -102.90761430 [kcal/mol]    -430.56545824 [kJ/mol]

  Special recipe for scaled SAPT0 (see Manual):
    Electrostatics sSAPT0        -152.33366425 [mEh]     -95.59081749 [kcal/mol]    -399.95198039 [kJ/mol]
    Exchange sSAPT0                45.21322579 [mEh]      28.37172753 [kcal/mol]     118.70730797 [kJ/mol]
    Induction sSAPT0              -61.60088050 [mEh]     -38.65513611 [kcal/mol]    -161.73308948 [kJ/mol]
    Dispersion sSAPT0              -2.96053852 [mEh]      -1.85776597 [kcal/mol]      -7.77289281 [kJ/mol]
  Total sSAPT0                   -171.68185748 [mEh]    -107.73199205 [kcal/mol]    -450.75065472 [kJ/mol]
  --------------------------------------------------------------------------------------------------------

*** Psi4 exiting successfully. Buy a developer a beer!
