                               Psi4 1.9 release

  ==> Input File <==

--------------------------------------------------------------------------
MEMORY 60 GB

molecule dimer {
1 1
Li     0.000000     0.000000     0.000000
--
0 1
O      1.559703    -0.841487     0.540327
H      1.536049    -1.800076     0.875428
H      2.332392    -0.765268    -0.044245
O      0.510627     1.846312     0.670480
H     -0.180696     2.157729     1.332101
H      1.456462     2.205848     0.908097
O     -0.805083    -0.528639    -1.542551
H     -1.443239     0.055871    -2.007726
H     -0.144858    -0.758380    -2.221599

units ang
no_reorient
no_com
symmetry c1
}

set {
basis        aug-cc-pVTZ
scf_type     df
}

energy("sapt2+")
--------------------------------------------------------------------------

  //              Dimer HF             //
    Molecular point group: c1
  Charge       = 1
  Multiplicity = 1
  Basis Set: AUG-CC-PVTZ
    Blend: AUG-CC-PVTZ
  Basis Set: (AUG-CC-PVTZ AUX)
    Blend: AUG-CC-PVTZ-JKFIT + DEF2-UNIVERSAL-JKFIT
  @DF-RHF Final Energy:  -235.52575474199026
    Total Energy =                       -235.5257547419902551
 Dipole X            :        -24.9203951           25.8478365            0.9274414
 Dipole Y            :         -9.1311241            9.2695073            0.1383831
 Dipole Z            :          6.7970465           -7.2034395           -0.4063930
 Magnitude           :                                                    1.0219846
  //            Monomer A HF           //
    Molecular point group: c1
  Multiplicity = 1
  Basis Set: AUG-CC-PVTZ
    Blend: AUG-CC-PVTZ
  Basis Set: (AUG-CC-PVTZ AUX)
    Blend: AUG-CC-PVTZ-JKFIT + DEF2-UNIVERSAL-JKFIT
  @DF-RHF Final Energy:    -7.23638447129490
    Total Energy =                         -7.2363844712949010
  //            Monomer B HF           //
    Molecular point group: c1

    Geometry (in Angstrom), charge = 0, multiplicity = 1:

       Center              X                  Y                   Z               Mass
    ------------   -----------------  -----------------  -----------------  -----------------
      Gh(LI)          0.000000000000     0.000000000000     0.000000000000     7.016003436600
         O            1.559703000000    -0.841487000000     0.540327000000    15.994914619570
         H            1.536049000000    -1.800076000000     0.875428000000     1.007825032230
         H            2.332392000000    -0.765268000000    -0.044245000000     1.007825032230
         O            0.510627000000     1.846312000000     0.670480000000    15.994914619570
         H           -0.180696000000     2.157729000000     1.332101000000     1.007825032230
         H            1.456462000000     2.205848000000     0.908097000000     1.007825032230
         O           -0.805083000000    -0.528639000000    -1.542551000000    15.994914619570
         H           -1.443239000000     0.055871000000    -2.007726000000     1.007825032230
         H           -0.144858000000    -0.758380000000    -2.221599000000     1.007825032230

  Charge       = 0
  Multiplicity = 1
  Basis Set: AUG-CC-PVTZ
    Blend: AUG-CC-PVTZ
  Basis Set: (AUG-CC-PVTZ AUX)
    Blend: AUG-CC-PVTZ-JKFIT + DEF2-UNIVERSAL-JKFIT

    Orbital Energies [Eh]
    ---------------------

    Doubly Occupied:

       1A    -20.548403     2A    -20.547193     3A    -20.545711
       4A     -1.317995     5A     -1.311317     6A     -1.291311
       7A     -0.681975     8A     -0.680182     9A     -0.668356
      10A     -0.558472    11A     -0.549430    12A     -0.527847
      13A     -0.486793    14A     -0.478335    15A     -0.472408

  @DF-RHF Final Energy:  -228.14786434502963

   => Energetics <=

    Nuclear Repulsion Energy =             74.0593551012121907
    One-Electron Energy =                -463.0829798172966321
    Two-Electron Energy =                 160.8757603710548096
    Total Energy =                       -228.1478643450296317
 Dipole X            :        -25.2246363           25.8478365            0.6232002
 Dipole Y            :         -9.1856533            9.2695073            0.0838540
 Dipole Z            :          6.9130961           -7.2034395           -0.2903434
 Magnitude           :                                                    0.6926104

    SAPT Results
  --------------------------------------------------------------------------------------------------------
    Electrostatics               -124.59194074 [mEh]     -78.18262317 [kcal/mol]    -327.11609534 [kJ/mol]
      Elst10,r                   -134.39248808 [mEh]     -84.33255948 [kcal/mol]    -352.84742885 [kJ/mol]
      Elst12,r                      9.80054735 [mEh]       6.14993631 [kcal/mol]      25.73133351 [kJ/mol]

    Exchange                       47.09756440 [mEh]      29.55416785 [kcal/mol]     123.65463830 [kJ/mol]
      Exch10                       44.14560300 [mEh]      27.70178411 [kcal/mol]     115.90426471 [kJ/mol]
      Exch10(S^2)                  43.63161523 [mEh]      27.37925191 [kcal/mol]     114.55479000 [kJ/mol]
      Exch11(S^2)                  -0.51000900 [mEh]      -0.32003548 [kcal/mol]      -1.33902845 [kJ/mol]
      Exch12(S^2)                   3.46197040 [mEh]       2.17241923 [kcal/mol]       9.08940204 [kJ/mol]

    Induction                     -56.23766421 [mEh]     -35.28966708 [kcal/mol]    -147.65196705 [kJ/mol]
      Ind20,r                     -76.15720630 [mEh]     -47.78936845 [kcal/mol]    -199.95071758 [kJ/mol]
      Ind22                        -7.94671485 [mEh]      -4.98663885 [kcal/mol]     -20.86409695 [kJ/mol]
      Exch-Ind20,r                 28.44465158 [mEh]      17.84928834 [kcal/mol]      74.68142243 [kJ/mol]
      Exch-Ind22                    2.96809122 [mEh]       1.86250536 [kcal/mol]       7.79272241 [kJ/mol]
      delta HF,r (2)               -3.54648587 [mEh]      -2.22545348 [kcal/mol]      -9.31129736 [kJ/mol]

    Dispersion                     -2.65936056 [mEh]      -1.66877394 [kcal/mol]      -6.98215018 [kJ/mol]
      Disp20                       -2.65114336 [mEh]      -1.66361757 [kcal/mol]      -6.96057592 [kJ/mol]
      Disp21                       -0.11089087 [mEh]      -0.06958507 [kcal/mol]      -0.29114393 [kJ/mol]
      Disp22 (SDQ)                 -0.04033184 [mEh]      -0.02530861 [kcal/mol]      -0.10589123 [kJ/mol]
      Disp22 (T)                   -0.15018945 [mEh]      -0.09424530 [kcal/mol]      -0.39432233 [kJ/mol]
      Est. Disp22 (T)              -0.17587242 [mEh]      -0.11036161 [kcal/mol]      -0.46175298 [kJ/mol]
      Exch-Disp20                   0.31887793 [mEh]       0.20009892 [kcal/mol]       0.83721389 [kJ/mol]

  Total HF                       -141.50592567 [mEh]     -88.79630895 [kcal/mol]    -371.52375665 [kJ/mol]
  Total SAPT0                    -143.83819109 [mEh]     -90.25982760 [kcal/mol]    -377.64711869 [kJ/mol]
  Total SAPT2                    -136.06430598 [mEh]     -85.38164104 [kcal/mol]    -357.23678613 [kJ/mol]
  Total SAPT2+                   -136.39140111 [mEh]     -85.58689634 [kcal/mol]    -358.09557427 [kJ/mol]

  Special recipe for scaled SAPT0 (see Manual):
    Electrostatics sSAPT0        -134.39248808 [mEh]     -84.33255948 [kcal/mol]    -352.84742885 [kJ/mol]
    Exchange sSAPT0                44.14560300 [mEh]      27.70178411 [kcal/mol]     115.90426471 [kJ/mol]
    Induction sSAPT0              -50.24190374 [mEh]     -31.52727058 [kcal/mol]    -131.91010009 [kJ/mol]
    Dispersion sSAPT0              -2.32086285 [mEh]      -1.45636342 [kcal/mol]      -6.09342456 [kJ/mol]
  Total sSAPT0                   -142.80965166 [mEh]     -89.61440937 [kcal/mol]    -374.94668879 [kJ/mol]
  --------------------------------------------------------------------------------------------------------

*** Psi4 exiting successfully. Buy a developer a beer!
