                               Psi4 1.9 release

  ==> Input File <==

--------------------------------------------------------------------------
MEMORY 60 GB

molecule dimer {
1 1
Li     0.000000     0.000000     0.000000
--
0 1
O      0.550681     0.947423     1.505334
H      0.161846     0.907748     2.392860
H      1.467969     1.175398     1.691757
O      0.754605    -1.279638    -0.954929
H      0.270620    -2.057244    -1.226441
H      1.014806    -0.868615    -1.816737
O      0.567737     1.533188    -1.263215
H      1.376336     2.087318    -1.155885
H     -0.117822     2.050584    -1.738495
O     -1.991045     0.342734    -0.264047
H     -2.302911     0.449848    -1.148678
H     -2.370736     1.090364     0.255936

units ang
no_reorient
no_com
symmetry c1
}

set {
basis        aug-cc-pVTZ
scf_type     df
}

energy("sapt2+")
--------------------------------------------------------------------------

  //              Dimer HF             //
    Molecular point group: c1
  Charge       = 1
  Multiplicity = 1
  Basis Set: AUG-CC-PVTZ
    Blend: AUG-CC-PVTZ
  Basis Set: (AUG-CC-PVTZ AUX)
    Blend: AUG-CC-PVTZ-JKFIT + DEF2-UNIVERSAL-JKFIT
  @DF-RHF Final Energy:  -311.62005216314259
    Total Energy =                       -311.6200521631425886
 Dipole X            :          2.5531583           -2.7288930           -0.1757347
 Dipole Y            :        -31.0524542           32.4750512            1.4225970
 Dipole Z            :         19.3344669          -19.9565264           -0.6220596
 Magnitude           :                                                    1.5625694
  //            Monomer A HF           //
    Molecular point group: c1
  Multiplicity = 1
  Basis Set: AUG-CC-PVTZ
    Blend: AUG-CC-PVTZ
  Basis Set: (AUG-CC-PVTZ AUX)
    Blend: AUG-CC-PVTZ-JKFIT + DEF2-UNIVERSAL-JKFIT
  @DF-RHF Final Energy:    -7.23638486322747
    Total Energy =                         -7.2363848632274710
  //            Monomer B HF           //
    Molecular point group: c1

    Geometry (in Angstrom), charge = 0, multiplicity = 1:

       Center              X                  Y                   Z               Mass
    ------------   -----------------  -----------------  -----------------  -----------------
      Gh(LI)          0.000000000000     0.000000000000     0.000000000000     7.016003436600
         O            0.550681000000     0.947423000000     1.505334000000    15.994914619570
         H            0.161846000000     0.907748000000     2.392860000000     1.007825032230
         H            1.467969000000     1.175398000000     1.691757000000     1.007825032230
         O            0.754605000000    -1.279638000000    -0.954929000000    15.994914619570
         H            0.270620000000    -2.057244000000    -1.226441000000     1.007825032230
         H            1.014806000000    -0.868615000000    -1.816737000000     1.007825032230
         O            0.567737000000     1.533188000000    -1.263215000000    15.994914619570
         H            1.376336000000     2.087318000000    -1.155885000000     1.007825032230
         H           -0.117822000000     2.050584000000    -1.738495000000     1.007825032230
         O           -1.991045000000     0.342734000000    -0.264047000000    15.994914619570
         H           -2.302911000000     0.449848000000    -1.148678000000     1.007825032230
         H           -2.370736000000     1.090364000000     0.255936000000     1.007825032230

  Charge       = 0
  Multiplicity = 1
  Basis Set: AUG-CC-PVTZ
    Blend: AUG-CC-PVTZ
  Basis Set: (AUG-CC-PVTZ AUX)
    Blend: AUG-CC-PVTZ-JKFIT + DEF2-UNIVERSAL-JKFIT

    Orbital Energies [Eh]
    ---------------------

    Doubly Occupied:

       1A    -20.544270     2A    -20.538558     3A    -20.535905
       4A    -20.523370     5A     -1.321501     6A     -1.317573
       7A     -1.312921     8A     -1.300578     9A     -0.691541
      10A     -0.688324    11A     -0.674678    12A     -0.662123
      13A     -0.564126    14A     -0.546089    15A     -0.537926
      16A     -0.536170    17A     -0.487749    18A     -0.476383
      19A     -0.469934    20A     -0.459466

  @DF-RHF Final Energy:  -304.20999247636382

   => Energetics <=

    Nuclear Repulsion Energy =            135.3083388930677984
    One-Electron Energy =                -690.6582870267670842
    Two-Electron Energy =                 251.1399556573354630
    Total Energy =                       -304.2099924763638228
 Dipole X            :          2.5434900           -2.7288930           -0.1854031
 Dipole Y            :        -31.3469119           32.4750512            1.1281393
 Dipole Z            :         19.5164789          -19.9565264           -0.4400476
 Magnitude           :                                                    1.2250365

    SAPT Results
  --------------------------------------------------------------------------------------------------------
    Electrostatics               -149.76508605 [mEh]     -93.97901034 [kcal/mol]    -393.20817926 [kJ/mol]
      Elst10,r                   -162.51024708 [mEh]    -101.97671963 [kcal/mol]    -426.67059492 [kJ/mol]
      Elst12,r                     12.74516102 [mEh]       7.99770929 [kcal/mol]      33.46241566 [kJ/mol]

    Exchange                       53.08598139 [mEh]      33.31195625 [kcal/mol]     139.37722494 [kJ/mol]
      Exch10                       49.93134906 [mEh]      31.33239458 [kcal/mol]     131.09473890 [kJ/mol]
      Exch10(S^2)                  49.27144631 [mEh]      30.91829935 [kcal/mol]     129.36216446 [kJ/mol]
      Exch11(S^2)                  -0.72634750 [mEh]      -0.45578994 [kcal/mol]      -1.90702510 [kJ/mol]
      Exch12(S^2)                   3.88097983 [mEh]       2.43535161 [kcal/mol]      10.18951113 [kJ/mol]

    Induction                     -67.34091543 [mEh]     -42.25706240 [kcal/mol]    -176.80354909 [kJ/mol]
      Ind20,r                     -86.72484596 [mEh]     -54.42066245 [kcal/mol]    -227.69605170 [kJ/mol]
      Ind22                        -9.57140642 [mEh]      -6.00614821 [kcal/mol]     -25.12972411 [kJ/mol]
      Exch-Ind20,r                 30.14008066 [mEh]      18.91318615 [kcal/mol]      79.13277086 [kJ/mol]
      Exch-Ind22                    3.32641654 [mEh]       2.08735789 [kcal/mol]       8.73350541 [kJ/mol]
      delta HF,r (2)               -4.51116023 [mEh]      -2.83079579 [kcal/mol]     -11.84404956 [kJ/mol]

    Dispersion                     -3.36620811 [mEh]      -2.11232748 [kcal/mol]      -8.83797818 [kJ/mol]
      Disp20                       -3.37301827 [mEh]      -2.11660092 [kcal/mol]      -8.85585824 [kJ/mol]
      Disp21                       -0.11482448 [mEh]      -0.07205345 [kcal/mol]      -0.30147163 [kJ/mol]
      Disp22 (SDQ)                 -0.04944565 [mEh]      -0.03102762 [kcal/mol]      -0.12981954 [kJ/mol]
      Disp22 (T)                   -0.19378389 [mEh]      -0.12160123 [kcal/mol]      -0.50877953 [kJ/mol]
      Est. Disp22 (T)              -0.22123075 [mEh]      -0.13882439 [kcal/mol]      -0.58084125 [kJ/mol]
      Exch-Disp20                   0.39231104 [mEh]       0.24617889 [kcal/mol]       1.03001249 [kJ/mol]

  Total HF                       -173.67482355 [mEh]    -108.98259714 [kcal/mol]    -455.98318641 [kJ/mol]
  Total SAPT0                    -176.65553078 [mEh]    -110.85301916 [kcal/mol]    -463.80903217 [kJ/mol]
  Total SAPT2                    -167.00072732 [mEh]    -104.79453852 [kcal/mol]    -438.46034917 [kJ/mol]
  Total SAPT2+                   -167.38622820 [mEh]    -105.03644398 [kcal/mol]    -439.47248160 [kJ/mol]

  Special recipe for scaled SAPT0 (see Manual):
    Electrostatics sSAPT0        -162.51024708 [mEh]    -101.97671963 [kcal/mol]    -426.67059492 [kJ/mol]
    Exchange sSAPT0                49.93134906 [mEh]      31.33239458 [kcal/mol]     131.09473890 [kJ/mol]
    Induction sSAPT0              -59.86861657 [mEh]     -37.56812408 [kcal/mol]    -157.18503114 [kJ/mol]
    Dispersion sSAPT0              -2.96473226 [mEh]      -1.86039758 [kcal/mol]      -7.78390348 [kJ/mol]
  Total sSAPT0                   -175.41224684 [mEh]    -110.07284671 [kcal/mol]    -460.54479064 [kJ/mol]
  --------------------------------------------------------------------------------------------------------

*** Psi4 exiting successfully. Buy a developer a beer!
