                               Psi4 1.9 release

  ==> Input File <==

--------------------------------------------------------------------------
MEMORY 60 GB

molecule dimer {
1 1
Li     0.000000     0.000000     0.000000
--
0 1
O      0.093466     1.102529     1.398467
H     -0.286264     0.781074     2.237075
H      1.062890     1.237794     1.569113
O     -0.817145    -1.577921     0.295809
H     -0.126605    -2.261842     0.420003
H     -1.199869    -1.626482    -0.594808

units ang
no_reorient
no_com
symmetry c1
}

set {
basis        aug-cc-pVTZ
scf_type     df
}

energy("sapt2+")
--------------------------------------------------------------------------

  //              Dimer HF             //
    Molecular point group: c1
  Charge       = 1
  Multiplicity = 1
  Basis Set: AUG-CC-PVTZ
    Blend: AUG-CC-PVTZ
  Basis Set: (AUG-CC-PVTZ AUX)
    Blend: AUG-CC-PVTZ-JKFIT + DEF2-UNIVERSAL-JKFIT
  @DF-RHF Final Energy:  -159.43326373436088
    Total Energy =                       -159.4332637343608781
 Dipole X            :         12.4563066          -11.9795030            0.4768036
 Dipole Y            :          9.9475390          -10.7196453           -0.7721063
 Dipole Z            :        -31.9572790           32.4760603            0.5187813
 Magnitude           :                                                    1.0452865
  //            Monomer A HF           //
    Molecular point group: c1
  Multiplicity = 1
  Basis Set: AUG-CC-PVTZ
    Blend: AUG-CC-PVTZ
  Basis Set: (AUG-CC-PVTZ AUX)
    Blend: AUG-CC-PVTZ-JKFIT + DEF2-UNIVERSAL-JKFIT
  @DF-RHF Final Energy:    -7.23638416173149
    Total Energy =                         -7.2363841617314852
  //            Monomer B HF           //
    Molecular point group: c1

    Geometry (in Angstrom), charge = 0, multiplicity = 1:

       Center              X                  Y                   Z               Mass
    ------------   -----------------  -----------------  -----------------  -----------------
      Gh(LI)          0.000000000000     0.000000000000     0.000000000000     7.016003436600
         O            0.093466000000     1.102529000000     1.398467000000    15.994914619570
         H           -0.286264000000     0.781074000000     2.237075000000     1.007825032230
         H            1.062890000000     1.237794000000     1.569113000000     1.007825032230
         O           -0.817145000000    -1.577921000000     0.295809000000    15.994914619570
         H           -0.126605000000    -2.261842000000     0.420003000000     1.007825032230
         H           -1.199869000000    -1.626482000000    -0.594808000000     1.007825032230

  Charge       = 0
  Multiplicity = 1
  Basis Set: AUG-CC-PVTZ
    Blend: AUG-CC-PVTZ
  Basis Set: (AUG-CC-PVTZ AUX)
    Blend: AUG-CC-PVTZ-JKFIT + DEF2-UNIVERSAL-JKFIT

    Orbital Energies [Eh]
    ---------------------

    Doubly Occupied:

       1A    -20.555833     2A    -20.552925     3A     -1.329649
       4A     -1.321161     5A     -0.709368     6A     -0.688697
       7A     -0.563070     8A     -0.554993     9A     -0.501055
      10A     -0.482885

  @DF-RHF Final Energy:  -152.11111829345941

   => Energetics <=

    Nuclear Repulsion Energy =             34.5581265131641544
    One-Electron Energy =                -278.8192171357322309
    Two-Electron Energy =                  92.1499723291086781
    Total Energy =                       -152.1111182934594126
 Dipole X            :         12.5495638          -11.9795030            0.5700607
 Dipole Y            :         10.1056098          -10.7196453           -0.6140355
 Dipole Z            :        -32.3514782           32.4760603            0.1245821
 Magnitude           :                                                    0.8470711

    SAPT Results
  --------------------------------------------------------------------------------------------------------
    Electrostatics                -90.90980050 [mEh]     -57.04676107 [kcal/mol]    -238.68364832 [kJ/mol]
      Elst10,r                    -95.59905939 [mEh]     -59.98931545 [kcal/mol]    -250.99529584 [kJ/mol]
      Elst12,r                      4.68925889 [mEh]       2.94255438 [kcal/mol]      12.31164752 [kJ/mol]

    Exchange                       54.93626328 [mEh]      34.47302566 [kcal/mol]     144.23513936 [kJ/mol]
      Exch10                       51.21746086 [mEh]      32.13944191 [kcal/mol]     134.47142496 [kJ/mol]
      Exch10(S^2)                  50.53756779 [mEh]      31.71280257 [kcal/mol]     132.68636594 [kJ/mol]
      Exch11(S^2)                  -0.47911073 [mEh]      -0.30064652 [kcal/mol]      -1.25790506 [kJ/mol]
      Exch12(S^2)                   4.19791315 [mEh]       2.63423027 [kcal/mol]      11.02161946 [kJ/mol]

    Induction                     -45.17812732 [mEh]     -28.34970290 [kcal/mol]    -118.61515693 [kJ/mol]
      Ind20,r                     -71.47489481 [mEh]     -44.85117363 [kcal/mol]    -187.65731047 [kJ/mol]
      Ind22                        -7.31472097 [mEh]      -4.59005671 [kcal/mol]     -19.20479727 [kJ/mol]
      Exch-Ind20,r                 34.35884108 [mEh]      21.56049829 [kcal/mol]      90.20912484 [kJ/mol]
      Exch-Ind22                    3.51627430 [mEh]       2.20649543 [kcal/mol]       9.23197689 [kJ/mol]
      delta HF,r (2)               -4.26362692 [mEh]      -2.67546628 [kcal/mol]     -11.19415093 [kJ/mol]

    Dispersion                     -2.47889558 [mEh]      -1.55553046 [kcal/mol]      -6.50833945 [kJ/mol]
      Disp20                       -2.46514408 [mEh]      -1.54690126 [kcal/mol]      -6.47223489 [kJ/mol]
      Disp21                       -0.11981057 [mEh]      -0.07518227 [kcal/mol]      -0.31456261 [kJ/mol]
      Disp22 (SDQ)                 -0.04612836 [mEh]      -0.02894598 [kcal/mol]      -0.12110999 [kJ/mol]
      Disp22 (T)                   -0.14067422 [mEh]      -0.08827441 [kcal/mol]      -0.36934012 [kJ/mol]
      Est. Disp22 (T)              -0.16474383 [mEh]      -0.10337831 [kcal/mol]      -0.43253486 [kJ/mol]
      Exch-Disp20                   0.31693125 [mEh]       0.19887736 [kcal/mol]       0.83210289 [kJ/mol]

  Total HF                        -85.76127917 [mEh]     -53.81601516 [kcal/mol]    -225.16620744 [kJ/mol]
  Total SAPT0                     -87.90949200 [mEh]     -55.16403906 [kcal/mol]    -230.80633944 [kJ/mol]
  Total SAPT2                     -83.29987736 [mEh]     -52.27146221 [kcal/mol]    -218.70379789 [kJ/mol]
  Total SAPT2+                    -83.63056012 [mEh]     -52.47896877 [kcal/mol]    -219.57200534 [kJ/mol]

  Special recipe for scaled SAPT0 (see Manual):
    Electrostatics sSAPT0         -95.59905939 [mEh]     -59.98931545 [kcal/mol]    -250.99529584 [kJ/mol]
    Exchange sSAPT0                51.21746086 [mEh]      32.13944191 [kcal/mol]     134.47142496 [kJ/mol]
    Induction sSAPT0              -39.97422999 [mEh]     -25.08420803 [kcal/mol]    -104.95232639 [kJ/mol]
    Dispersion sSAPT0              -2.13524873 [mEh]      -1.33988881 [kcal/mol]      -5.60609478 [kJ/mol]
  Total sSAPT0                    -86.49107726 [mEh]     -54.27397038 [kcal/mol]    -227.08229205 [kJ/mol]
  --------------------------------------------------------------------------------------------------------

*** Psi4 exiting successfully. Buy a developer a beer!
