                               Psi4 1.9 release

  ==> Input File <==

--------------------------------------------------------------------------
MEMORY 60 GB

molecule dimer {
1 1
Li     0.000000     0.000000     0.000000
--
0 1
O     -0.207258     1.893567    -0.189270
H     -1.121865     2.058966     0.128404
H     -0.276352     2.100735    -1.147691
O     -0.450346    -0.540463     1.792528
H     -1.197754    -1.034385     1.966029
H     -0.329736    -0.092928     2.623816
O      1.811809    -0.507348    -0.752479
H      2.033480    -0.946021     0.085056
H      1.816157    -1.201410    -1.392174
O     -1.390009    -0.914970    -1.164105
H     -2.030872    -0.570429    -0.544099
H     -1.574691    -1.795563    -1.145738

units ang
no_reorient
no_com
symmetry c1
}

set {
basis        aug-cc-pVTZ
scf_type     df
}

energy("sapt2+")
--------------------------------------------------------------------------

  //              Dimer HF             //
    Molecular point group: c1
  Charge       = 1
  Multiplicity = 1
  Basis Set: AUG-CC-PVTZ
    Blend: AUG-CC-PVTZ
  Basis Set: (AUG-CC-PVTZ AUX)
    Blend: AUG-CC-PVTZ-JKFIT + DEF2-UNIVERSAL-JKFIT
  @DF-RHF Final Energy:  -311.60937465181098
    Total Energy =                       -311.6093746518109810
 Dipole X            :          7.1231147           -8.6323918           -1.5092770
 Dipole Y            :          2.9209900           -3.8451146           -0.9241245
 Dipole Z            :          4.4565008           -3.6528500            0.8036508
 Magnitude           :                                                    1.9436507
  //            Monomer A HF           //
    Molecular point group: c1
  Multiplicity = 1
  Basis Set: AUG-CC-PVTZ
    Blend: AUG-CC-PVTZ
  Basis Set: (AUG-CC-PVTZ AUX)
    Blend: AUG-CC-PVTZ-JKFIT + DEF2-UNIVERSAL-JKFIT
  @DF-RHF Final Energy:    -7.23638495693559
    Total Energy =                         -7.2363849569355887
  //            Monomer B HF           //
    Molecular point group: c1

    Geometry (in Angstrom), charge = 0, multiplicity = 1:

       Center              X                  Y                   Z               Mass
    ------------   -----------------  -----------------  -----------------  -----------------
      Gh(LI)          0.000000000000     0.000000000000     0.000000000000     7.016003436600
         O           -0.207258000000     1.893567000000    -0.189270000000    15.994914619570
         H           -1.121865000000     2.058966000000     0.128404000000     1.007825032230
         H           -0.276352000000     2.100735000000    -1.147691000000     1.007825032230
         O           -0.450346000000    -0.540463000000     1.792528000000    15.994914619570
         H           -1.197754000000    -1.034385000000     1.966029000000     1.007825032230
         H           -0.329736000000    -0.092928000000     2.623816000000     1.007825032230
         O            1.811809000000    -0.507348000000    -0.752479000000    15.994914619570
         H            2.033480000000    -0.946021000000     0.085056000000     1.007825032230
         H            1.816157000000    -1.201410000000    -1.392174000000     1.007825032230
         O           -1.390009000000    -0.914970000000    -1.164105000000    15.994914619570
         H           -2.030872000000    -0.570429000000    -0.544099000000     1.007825032230
         H           -1.574691000000    -1.795563000000    -1.145738000000     1.007825032230

  Charge       = 0
  Multiplicity = 1
  Basis Set: AUG-CC-PVTZ
    Blend: AUG-CC-PVTZ
  Basis Set: (AUG-CC-PVTZ AUX)
    Blend: AUG-CC-PVTZ-JKFIT + DEF2-UNIVERSAL-JKFIT

    Orbital Energies [Eh]
    ---------------------

    Doubly Occupied:

       1A    -20.557026     2A    -20.543878     3A    -20.537094
       4A    -20.525948     5A     -1.364331     6A     -1.354356
       7A     -1.313102     8A     -1.307246     9A     -0.719608
      10A     -0.710307    11A     -0.677639    12A     -0.665641
      13A     -0.588618    14A     -0.577404    15A     -0.551590
      16A     -0.539716    17A     -0.508540    18A     -0.494696
      19A     -0.472418    20A     -0.465349

  @DF-RHF Final Energy:  -304.21989353390614

   => Energetics <=

    Nuclear Repulsion Energy =            132.4281509391809664
    One-Electron Energy =                -684.3470660139402071
    Two-Electron Energy =                 247.6990215408531242
    Total Energy =                       -304.2198935339062018
 Dipole X            :          7.2526468           -8.6323918           -1.3797450
 Dipole Y            :          2.9481762           -3.8451146           -0.8969384
 Dipole Z            :          4.4616014           -3.6528500            0.8087513
 Magnitude           :                                                    1.8336503

    SAPT Results
  --------------------------------------------------------------------------------------------------------
    Electrostatics               -127.86810126 [mEh]     -80.23844493 [kcal/mol]    -335.71765360 [kJ/mol]
      Elst10,r                   -136.25881240 [mEh]     -85.50369567 [kcal/mol]    -357.74746267 [kJ/mol]
      Elst12,r                      8.39071115 [mEh]       5.26525074 [kcal/mol]      22.02980908 [kJ/mol]

    Exchange                       43.76374252 [mEh]      27.46216304 [kcal/mol]     114.90169014 [kJ/mol]
      Exch10                       40.13905225 [mEh]      25.18763555 [kcal/mol]     105.38506716 [kJ/mol]
      Exch10(S^2)                  39.70904818 [mEh]      24.91780393 [kcal/mol]     104.25609163 [kJ/mol]
      Exch11(S^2)                  -0.62540937 [mEh]      -0.39245031 [kcal/mol]      -1.64201208 [kJ/mol]
      Exch12(S^2)                   4.25009964 [mEh]       2.66697779 [kcal/mol]      11.15863507 [kJ/mol]

    Induction                     -63.20584505 [mEh]     -39.66226656 [kcal/mol]    -165.94692330 [kJ/mol]
      Ind20,r                     -79.10458255 [mEh]     -49.63887497 [kcal/mol]    -207.68905288 [kJ/mol]
      Ind22                        -9.29517312 [mEh]      -5.83280919 [kcal/mol]     -24.40447366 [kJ/mol]
      Exch-Ind20,r                 26.09022994 [mEh]      16.37186646 [kcal/mol]      68.49988928 [kJ/mol]
      Exch-Ind22                    3.06572889 [mEh]       1.92377392 [kcal/mol]       8.04907009 [kJ/mol]
      delta HF,r (2)               -3.96204820 [mEh]      -2.48622278 [kcal/mol]     -10.40235612 [kJ/mol]

    Dispersion                     -2.96212127 [mEh]      -1.85875916 [kcal/mol]      -7.77704832 [kJ/mol]
      Disp20                       -2.91024739 [mEh]      -1.82620781 [kcal/mol]      -7.64085347 [kJ/mol]
      Disp21                       -0.13060208 [mEh]      -0.08195404 [kcal/mol]      -0.34289571 [kJ/mol]
      Disp22 (SDQ)                 -0.05799061 [mEh]      -0.03638966 [kcal/mol]      -0.15225432 [kJ/mol]
      Disp22 (T)                   -0.16545973 [mEh]      -0.10382755 [kcal/mol]      -0.43441447 [kJ/mol]
      Est. Disp22 (T)              -0.19669240 [mEh]      -0.12342635 [kcal/mol]      -0.51641583 [kJ/mol]
      Exch-Disp20                   0.33341121 [mEh]       0.20921869 [kcal/mol]       0.87537100 [kJ/mol]

  Total HF                       -153.09616097 [mEh]     -96.06929141 [kcal/mol]    -401.95391525 [kJ/mol]
  Total SAPT0                    -155.67299715 [mEh]     -97.68628052 [kcal/mol]    -408.71939771 [kJ/mol]
  Total SAPT2                    -149.88703997 [mEh]     -94.05553758 [kcal/mol]    -393.52836922 [kJ/mol]
  Total SAPT2+                   -150.27232505 [mEh]     -94.29730762 [kcal/mol]    -394.53993507 [kJ/mol]

  Special recipe for scaled SAPT0 (see Manual):
    Electrostatics sSAPT0        -136.25881240 [mEh]     -85.50369567 [kcal/mol]    -357.74746267 [kJ/mol]
    Exchange sSAPT0                40.13905225 [mEh]      25.18763555 [kcal/mol]     105.38506716 [kJ/mol]
    Induction sSAPT0              -56.11960630 [mEh]     -35.21558462 [kcal/mol]    -147.34200603 [kJ/mol]
    Dispersion sSAPT0              -2.56588707 [mEh]      -1.61011844 [kcal/mol]      -6.73673557 [kJ/mol]
  Total sSAPT0                   -154.80525352 [mEh]     -97.14176317 [kcal/mol]    -406.44113712 [kJ/mol]
  --------------------------------------------------------------------------------------------------------

*** Psi4 exiting successfully. Buy a developer a beer!
