                               Psi4 1.9 release

  ==> Input File <==

--------------------------------------------------------------------------
MEMORY 60 GB

molecule dimer {
1 1
Li     0.000000     0.000000     0.000000
--
0 1
O      0.479299    -0.023155     2.040576
H      1.401203    -0.047344     1.992724
H      0.183700    -0.723857     2.589691
O      1.211465     0.917124    -1.085982
H      1.893267     0.250849    -1.335533
H      1.514507     1.731669    -0.789172
O      0.020647    -1.905313    -0.620925
H      0.710937    -2.493526    -1.007313
H     -0.763325    -2.495709    -0.483083
O     -1.823938     0.516909    -0.645776
H     -2.499709    -0.060327    -0.255399
H     -2.179640     1.399153    -0.823341

units ang
no_reorient
no_com
symmetry c1
}

set {
basis        aug-cc-pVTZ
scf_type     df
}

energy("sapt2+")
--------------------------------------------------------------------------

  //              Dimer HF             //
    Molecular point group: c1
  Charge       = 1
  Multiplicity = 1
  Basis Set: AUG-CC-PVTZ
    Blend: AUG-CC-PVTZ
  Basis Set: (AUG-CC-PVTZ AUX)
    Blend: AUG-CC-PVTZ-JKFIT + DEF2-UNIVERSAL-JKFIT
  @DF-RHF Final Energy:  -311.61890774487426
    Total Energy =                       -311.6189077448742637
 Dipole X            :          1.5455801           -1.2080566            0.3375235
 Dipole Y            :         11.0440768          -12.0839898           -1.0399129
 Dipole Z            :          5.1609629           -4.9289386            0.2320242
 Magnitude           :                                                    1.1176656
  //            Monomer A HF           //
    Molecular point group: c1
  Multiplicity = 1
  Basis Set: AUG-CC-PVTZ
    Blend: AUG-CC-PVTZ
  Basis Set: (AUG-CC-PVTZ AUX)
    Blend: AUG-CC-PVTZ-JKFIT + DEF2-UNIVERSAL-JKFIT
  @DF-RHF Final Energy:    -7.23638484600365
    Total Energy =                         -7.2363848460036477
  //            Monomer B HF           //
    Molecular point group: c1

    Geometry (in Angstrom), charge = 0, multiplicity = 1:

       Center              X                  Y                   Z               Mass
    ------------   -----------------  -----------------  -----------------  -----------------
      Gh(LI)          0.000000000000     0.000000000000     0.000000000000     7.016003436600
         O            0.479299000000    -0.023155000000     2.040576000000    15.994914619570
         H            1.401203000000    -0.047344000000     1.992724000000     1.007825032230
         H            0.183700000000    -0.723857000000     2.589691000000     1.007825032230
         O            1.211465000000     0.917124000000    -1.085982000000    15.994914619570
         H            1.893267000000     0.250849000000    -1.335533000000     1.007825032230
         H            1.514507000000     1.731669000000    -0.789172000000     1.007825032230
         O            0.020647000000    -1.905313000000    -0.620925000000    15.994914619570
         H            0.710937000000    -2.493526000000    -1.007313000000     1.007825032230
         H           -0.763325000000    -2.495709000000    -0.483083000000     1.007825032230
         O           -1.823938000000     0.516909000000    -0.645776000000    15.994914619570
         H           -2.499709000000    -0.060327000000    -0.255399000000     1.007825032230
         H           -2.179640000000     1.399153000000    -0.823341000000     1.007825032230

  Charge       = 0
  Multiplicity = 1
  Basis Set: AUG-CC-PVTZ
    Blend: AUG-CC-PVTZ
  Basis Set: (AUG-CC-PVTZ AUX)
    Blend: AUG-CC-PVTZ-JKFIT + DEF2-UNIVERSAL-JKFIT

    Orbital Energies [Eh]
    ---------------------

    Doubly Occupied:

       1A    -20.550458     2A    -20.529626     3A    -20.527757
       4A    -20.524744     5A     -1.334237     6A     -1.317083
       7A     -1.313706     8A     -1.304684     9A     -0.711992
      10A     -0.709182    11A     -0.687591    12A     -0.678630
      13A     -0.559011    14A     -0.548911    15A     -0.531853
      16A     -0.514944    17A     -0.489975    18A     -0.476581
      19A     -0.469423    20A     -0.466732

  @DF-RHF Final Energy:  -304.21034649863395

   => Energetics <=

    Nuclear Repulsion Energy =            130.4715711624542109
    One-Electron Energy =                -680.8695842439556145
    Two-Electron Energy =                 246.1876665828674504
    Total Energy =                       -304.2103464986339532
 Dipole X            :          1.5332419           -1.2080566            0.3251853
 Dipole Y            :         11.1795414          -12.0839898           -0.9044484
 Dipole Z            :          5.2456364           -4.9289386            0.3166977
 Magnitude           :                                                    1.0119634

    SAPT Results
  --------------------------------------------------------------------------------------------------------
    Electrostatics               -142.08308067 [mEh]     -89.15847919 [kcal/mol]    -373.03907691 [kJ/mol]
      Elst10,r                   -152.93247621 [mEh]     -95.96657767 [kcal/mol]    -401.52416097 [kJ/mol]
      Elst12,r                     10.84939554 [mEh]       6.80809848 [kcal/mol]      28.48508406 [kJ/mol]

    Exchange                       39.98057245 [mEh]      25.08818798 [kcal/mol]     104.96897850 [kJ/mol]
      Exch10                       36.97054516 [mEh]      23.19936734 [kcal/mol]      97.06615295 [kJ/mol]
      Exch10(S^2)                  36.60510077 [mEh]      22.97004752 [kcal/mol]      96.10667883 [kJ/mol]
      Exch11(S^2)                  -0.53272281 [mEh]      -0.33428861 [kcal/mol]      -1.39866355 [kJ/mol]
      Exch12(S^2)                   3.54275010 [mEh]       2.22310925 [kcal/mol]       9.30148910 [kJ/mol]

    Induction                     -62.21464199 [mEh]     -39.04027726 [kcal/mol]    -163.34452004 [kJ/mol]
      Ind20,r                     -76.57058718 [mEh]     -48.04876887 [kcal/mol]    -201.03604894 [kJ/mol]
      Ind22                        -8.73001482 [mEh]      -5.47816701 [kcal/mol]     -22.92065075 [kJ/mol]
      Exch-Ind20,r                 23.94332777 [mEh]      15.02466501 [kcal/mol]      62.86319841 [kJ/mol]
      Exch-Ind22                    2.72984202 [mEh]       1.71300173 [kcal/mol]       7.16719923 [kJ/mol]
      delta HF,r (2)               -3.58720978 [mEh]      -2.25100812 [kcal/mol]      -9.41821799 [kJ/mol]

    Dispersion                     -2.76398199 [mEh]      -1.73442489 [kcal/mol]      -7.25683373 [kJ/mol]
      Disp20                       -2.71880215 [mEh]      -1.70607411 [kcal/mol]      -7.13821407 [kJ/mol]
      Disp21                       -0.11612423 [mEh]      -0.07286905 [kcal/mol]      -0.30488412 [kJ/mol]
      Disp22 (SDQ)                 -0.04794730 [mEh]      -0.03008739 [kcal/mol]      -0.12588562 [kJ/mol]
      Disp22 (T)                   -0.15429820 [mEh]      -0.09682358 [kcal/mol]      -0.40510987 [kJ/mol]
      Est. Disp22 (T)              -0.18216422 [mEh]      -0.11430977 [kcal/mol]      -0.47827209 [kJ/mol]
      Exch-Disp20                   0.30105591 [mEh]       0.18891544 [kcal/mol]       0.79042219 [kJ/mol]

  Total HF                       -172.17640024 [mEh]    -108.04232231 [kcal/mol]    -452.04907654 [kJ/mol]
  Total SAPT0                    -174.59414648 [mEh]    -109.55948098 [kcal/mol]    -458.39686843 [kJ/mol]
  Total SAPT2                    -166.73489646 [mEh]    -104.62772714 [kcal/mol]    -437.76241034 [kJ/mol]
  Total SAPT2+                   -167.08113221 [mEh]    -104.84499335 [kcal/mol]    -438.67145218 [kJ/mol]

  Special recipe for scaled SAPT0 (see Manual):
    Electrostatics sSAPT0        -152.93247621 [mEh]     -95.96657767 [kcal/mol]    -401.52416097 [kJ/mol]
    Exchange sSAPT0                36.97054516 [mEh]      23.19936734 [kcal/mol]      97.06615295 [kJ/mol]
    Induction sSAPT0              -55.49017668 [mEh]     -34.82061157 [kcal/mol]    -145.68943880 [kJ/mol]
    Dispersion sSAPT0              -2.40863921 [mEh]      -1.51144393 [kcal/mol]      -6.32388139 [kJ/mol]
  Total sSAPT0                   -173.86074694 [mEh]    -109.09926582 [kcal/mol]    -456.47132820 [kJ/mol]
  --------------------------------------------------------------------------------------------------------

*** Psi4 exiting successfully. Buy a developer a beer!
