                               Psi4 1.9 release

  ==> Input File <==

--------------------------------------------------------------------------
MEMORY 60 GB

molecule dimer {
1 1
Li     0.000000     0.000000     0.000000
--
0 1
O     -1.713431    -0.192651    -0.922553
H     -2.074049    -0.912705    -1.508446
H     -1.723588     0.568295    -1.499263
O      0.348439    -1.893986     0.119571
H     -0.123004    -2.715643     0.131494
H      1.215094    -2.096468    -0.252221
O     -0.160179     0.708868     1.726520
H     -0.768047     1.453803     1.689983
H     -0.342640     0.096572     2.429882
O      1.531978     0.426968    -1.011974
H      2.042686    -0.201545    -1.515655
H      2.129691     0.960383    -0.509585

units ang
no_reorient
no_com
symmetry c1
}

set {
basis        aug-cc-pVTZ
scf_type     df
}

energy("sapt2+")
--------------------------------------------------------------------------

  //              Dimer HF             //
    Molecular point group: c1
  Charge       = 1
  Multiplicity = 1
  Basis Set: AUG-CC-PVTZ
    Blend: AUG-CC-PVTZ
  Basis Set: (AUG-CC-PVTZ AUX)
    Blend: AUG-CC-PVTZ-JKFIT + DEF2-UNIVERSAL-JKFIT
  @DF-RHF Final Energy:  -311.62441375168180
    Total Energy =                       -311.6244137516818000
 Dipole X            :         -0.5508846            0.7759197            0.2250351
 Dipole Y            :         18.9578913          -19.7546602           -0.7967689
 Dipole Z            :          2.7355400           -3.2905782           -0.5550383
 Magnitude           :                                                    0.9967692
  //            Monomer A HF           //
    Molecular point group: c1
  Multiplicity = 1
  Basis Set: AUG-CC-PVTZ
    Blend: AUG-CC-PVTZ
  Basis Set: (AUG-CC-PVTZ AUX)
    Blend: AUG-CC-PVTZ-JKFIT + DEF2-UNIVERSAL-JKFIT
  @DF-RHF Final Energy:    -7.23638493856512
    Total Energy =                         -7.2363849385651200
  //            Monomer B HF           //
    Molecular point group: c1

    Geometry (in Angstrom), charge = 0, multiplicity = 1:

       Center              X                  Y                   Z               Mass
    ------------   -----------------  -----------------  -----------------  -----------------
      Gh(LI)          0.000000000000     0.000000000000     0.000000000000     7.016003436600
         O           -1.713431000000    -0.192651000000    -0.922553000000    15.994914619570
         H           -2.074049000000    -0.912705000000    -1.508446000000     1.007825032230
         H           -1.723588000000     0.568295000000    -1.499263000000     1.007825032230
         O            0.348439000000    -1.893986000000     0.119571000000    15.994914619570
         H           -0.123004000000    -2.715643000000     0.131494000000     1.007825032230
         H            1.215094000000    -2.096468000000    -0.252221000000     1.007825032230
         O           -0.160179000000     0.708868000000     1.726520000000    15.994914619570
         H           -0.768047000000     1.453803000000     1.689983000000     1.007825032230
         H           -0.342640000000     0.096572000000     2.429882000000     1.007825032230
         O            1.531978000000     0.426968000000    -1.011974000000    15.994914619570
         H            2.042686000000    -0.201545000000    -1.515655000000     1.007825032230
         H            2.129691000000     0.960383000000    -0.509585000000     1.007825032230

  Charge       = 0
  Multiplicity = 1
  Basis Set: AUG-CC-PVTZ
    Blend: AUG-CC-PVTZ
  Basis Set: (AUG-CC-PVTZ AUX)
    Blend: AUG-CC-PVTZ-JKFIT + DEF2-UNIVERSAL-JKFIT

    Orbital Energies [Eh]
    ---------------------

    Doubly Occupied:

       1A    -20.536581     2A    -20.534390     3A    -20.533560
       4A    -20.522327     5A     -1.329665     6A     -1.321161
       7A     -1.310224     8A     -1.307734     9A     -0.705614
      10A     -0.696555    11A     -0.687981    12A     -0.668965
      13A     -0.563582    14A     -0.547436    15A     -0.538272
      16A     -0.524394    17A     -0.486592    18A     -0.478496
      19A     -0.465835    20A     -0.462611

  @DF-RHF Final Energy:  -304.21500086404876

   => Energetics <=

    Nuclear Repulsion Energy =            134.9655702164185698
    One-Electron Energy =                -689.9171877512180799
    Two-Electron Energy =                 250.7366166707507773
    Total Energy =                       -304.2150008640487613
 Dipole X            :         -0.5669529            0.7759197            0.2089668
 Dipole Y            :         19.1849098          -19.7546602           -0.5697504
 Dipole Z            :          2.7842274           -3.2905782           -0.5063508
 Magnitude           :                                                    0.7903631

    SAPT Results
  --------------------------------------------------------------------------------------------------------
    Electrostatics               -146.47455032 [mEh]     -91.91416799 [kcal/mol]    -384.56887887 [kJ/mol]
      Elst10,r                   -158.53732788 [mEh]     -99.48367519 [kcal/mol]    -416.23969699 [kJ/mol]
      Elst12,r                     12.06277756 [mEh]       7.56950720 [kcal/mol]      31.67081812 [kJ/mol]

    Exchange                       50.51642066 [mEh]      31.69953255 [kcal/mol]     132.63084417 [kJ/mol]
      Exch10                       47.17757155 [mEh]      29.60437310 [kcal/mol]     123.86469705 [kJ/mol]
      Exch10(S^2)                  46.58337754 [mEh]      29.23151073 [kcal/mol]     122.30464088 [kJ/mol]
      Exch11(S^2)                  -0.75395525 [mEh]      -0.47311406 [kcal/mol]      -1.97950923 [kJ/mol]
      Exch12(S^2)                   4.09280436 [mEh]       2.56827351 [kcal/mol]      10.74565635 [kJ/mol]

    Induction                     -68.14062883 [mEh]     -42.75889014 [kcal/mol]    -178.90319634 [kJ/mol]
      Ind20,r                     -86.07779969 [mEh]     -54.01463479 [kcal/mol]    -225.99723194 [kJ/mol]
      Ind22                        -9.71574337 [mEh]      -6.09672101 [kcal/mol]     -25.50868071 [kJ/mol]
      Exch-Ind20,r                 28.73447194 [mEh]      18.03115337 [kcal/mol]      75.44234569 [kJ/mol]
      Exch-Ind22                    3.24330729 [mEh]       2.03520605 [kcal/mol]       8.51530212 [kJ/mol]
      delta HF,r (2)               -4.32486500 [mEh]      -2.71389376 [kcal/mol]     -11.35493149 [kJ/mol]

    Dispersion                     -3.37570342 [mEh]      -2.11828587 [kcal/mol]      -8.86290810 [kJ/mol]
      Disp20                       -3.36194736 [mEh]      -2.10965382 [kcal/mol]      -8.82679159 [kJ/mol]
      Disp21                       -0.12469225 [mEh]      -0.07824557 [kcal/mol]      -0.32737946 [kJ/mol]
      Disp22 (SDQ)                 -0.05144770 [mEh]      -0.03228392 [kcal/mol]      -0.13507591 [kJ/mol]
      Disp22 (T)                   -0.20195509 [mEh]      -0.12672873 [kcal/mol]      -0.53023302 [kJ/mol]
      Est. Disp22 (T)              -0.22453609 [mEh]      -0.14089852 [kcal/mol]      -0.58951943 [kJ/mol]
      Exch-Disp20                   0.38691999 [mEh]       0.24279596 [kcal/mol]       1.01585829 [kJ/mol]

  Total HF                       -173.02794907 [mEh]    -108.57667727 [kcal/mol]    -454.28481769 [kJ/mol]
  Total SAPT0                    -176.00297644 [mEh]    -110.44353513 [kcal/mol]    -462.09575098 [kJ/mol]
  Total SAPT2                    -167.07378586 [mEh]    -104.84038344 [kcal/mol]    -438.65216433 [kJ/mol]
  Total SAPT2+                   -167.47446190 [mEh]    -105.09181146 [kcal/mol]    -439.70413914 [kJ/mol]

  Special recipe for scaled SAPT0 (see Manual):
    Electrostatics sSAPT0        -158.53732788 [mEh]     -99.48367519 [kcal/mol]    -416.23969699 [kJ/mol]
    Exchange sSAPT0                47.17757155 [mEh]      29.60437310 [kcal/mol]     123.86469705 [kJ/mol]
    Induction sSAPT0              -60.55454039 [mEh]     -37.99854778 [kcal/mol]    -158.98592390 [kJ/mol]
    Dispersion sSAPT0              -2.96003164 [mEh]      -1.85744790 [kcal/mol]      -7.77156201 [kJ/mol]
  Total sSAPT0                   -174.87432836 [mEh]    -109.73529777 [kcal/mol]    -459.13248586 [kJ/mol]
  --------------------------------------------------------------------------------------------------------

*** Psi4 exiting successfully. Buy a developer a beer!
