                               Psi4 1.9 release

  ==> Input File <==

--------------------------------------------------------------------------
MEMORY 60 GB

molecule dimer {
1 1
Na     0.000000     0.000000     0.000000
--
0 1
O     -0.673232    -1.361551     1.844656
H     -1.547116    -1.792032     1.858565
H     -0.316973    -1.439934     2.743867
O      0.336907     1.936373     1.176897
H      0.697941     1.645446     2.028898
H     -0.264584     2.611499     1.395482
O      2.529759    -0.112909    -0.584417
H      2.441833     0.580572    -1.291541
H      2.910429    -0.881984    -1.056684
O     -0.010284    -1.811195    -1.348257
H      0.547324    -2.624263    -1.265891
H     -0.939829    -2.087539    -1.346780
O     -2.278247     0.340150    -0.389340
H     -3.045876     0.723307     0.114275
H     -2.643174    -0.488879    -0.716904

units ang
no_reorient
no_com
symmetry c1
}

set {
basis        aug-cc-pVTZ
scf_type     df
}

energy("sapt2+")
--------------------------------------------------------------------------

  //              Dimer HF             //
    Molecular point group: c1
  Charge       = 1
  Multiplicity = 1
  Basis Set: AUG-CC-PVTZ
    Blend: AUG-CC-PVTZ
  Basis Set: (AUG-CC-PVTZ AUX)
    Blend: AUG-CC-PVTZ-JKFIT + DEF2-UNIVERSAL-JKFIT
  @DF-RHF Final Energy:  -542.08451713805130
    Total Energy =                       -542.0845171380512966
 Dipole X            :          4.1666726           -5.5195140           -1.3528414
 Dipole Y            :         21.1369124          -22.3495320           -1.2126196
 Dipole Z            :        -14.3930468           15.2304348            0.8373880
 Magnitude           :                                                    2.0004611
  //            Monomer A HF           //
    Molecular point group: c1
  Multiplicity = 1
  Basis Set: AUG-CC-PVTZ
    Blend: AUG-CC-PVTZ
  Basis Set: (AUG-CC-PVTZ AUX)
    Blend: AUG-CC-PVTZ-JKFIT + DEF2-UNIVERSAL-JKFIT
  @DF-RHF Final Energy:  -161.67609121361951
    Total Energy =                       -161.6760912136195145
  //            Monomer B HF           //
    Molecular point group: c1

    Geometry (in Angstrom), charge = 0, multiplicity = 1:

       Center              X                  Y                   Z               Mass
    ------------   -----------------  -----------------  -----------------  -----------------
      Gh(NA)          0.000000000000     0.000000000000     0.000000000000    22.989769282000
         O           -0.673232000000    -1.361551000000     1.844656000000    15.994914619570
         H           -1.547116000000    -1.792032000000     1.858565000000     1.007825032230
         H           -0.316973000000    -1.439934000000     2.743867000000     1.007825032230
         O            0.336907000000     1.936373000000     1.176897000000    15.994914619570
         H            0.697941000000     1.645446000000     2.028898000000     1.007825032230
         H           -0.264584000000     2.611499000000     1.395482000000     1.007825032230
         O            2.529759000000    -0.112909000000    -0.584417000000    15.994914619570
         H            2.441833000000     0.580572000000    -1.291541000000     1.007825032230
         H            2.910429000000    -0.881984000000    -1.056684000000     1.007825032230
         O           -0.010284000000    -1.811195000000    -1.348257000000    15.994914619570
         H            0.547324000000    -2.624263000000    -1.265891000000     1.007825032230
         H           -0.939829000000    -2.087539000000    -1.346780000000     1.007825032230
         O           -2.278247000000     0.340150000000    -0.389340000000    15.994914619570
         H           -3.045876000000     0.723307000000     0.114275000000     1.007825032230
         H           -2.643174000000    -0.488879000000    -0.716904000000     1.007825032230

  Charge       = 0
  Multiplicity = 1
  Basis Set: AUG-CC-PVTZ
    Blend: AUG-CC-PVTZ
  Basis Set: (AUG-CC-PVTZ AUX)
    Blend: AUG-CC-PVTZ-JKFIT + DEF2-UNIVERSAL-JKFIT

    Orbital Energies [Eh]
    ---------------------

    Doubly Occupied:

       1A    -20.552648     2A    -20.548124     3A    -20.542638
       4A    -20.533112     5A    -20.527986     6A     -1.325927
       7A     -1.323484     8A     -1.319836     9A     -1.313523
      10A     -1.299869    11A     -0.693959    12A     -0.690555
      13A     -0.684146    14A     -0.678209    15A     -0.661367
      16A     -0.564445    17A     -0.554256    18A     -0.547095
      19A     -0.545593    20A     -0.539635    21A     -0.494162
      22A     -0.485528    23A     -0.476273    24A     -0.470910
      25A     -0.466450

  @DF-RHF Final Energy:  -380.26872412887434

   => Energetics <=

    Nuclear Repulsion Energy =            186.3241520207002395
    One-Electron Energy =                -897.5062849146880808
    Two-Electron Energy =                 330.9134087651135019
    Total Energy =                       -380.2687241288743394
 Dipole X            :          4.2809618           -5.5195140           -1.2385522
 Dipole Y            :         21.3111482          -22.3495320           -1.0383838
 Dipole Z            :        -14.5252865           15.2304348            0.7051483
 Magnitude           :                                                    1.7633736

    SAPT Results
  --------------------------------------------------------------------------------------------------------
    Electrostatics               -131.53652404 [mEh]     -82.54041498 [kcal/mol]    -345.34909628 [kJ/mol]
      Elst10,r                   -139.79028645 [mEh]     -87.71972909 [kcal/mol]    -367.01934651 [kJ/mol]
      Elst12,r                      8.25376241 [mEh]       5.17931411 [kcal/mol]      21.67025023 [kJ/mol]

    Exchange                       37.71112051 [mEh]      23.66408539 [kcal/mol]      99.01053326 [kJ/mol]
      Exch10                       33.90770528 [mEh]      21.27740630 [kcal/mol]      89.02466795 [kJ/mol]
      Exch10(S^2)                  33.86453880 [mEh]      21.25031892 [kcal/mol]      88.91133437 [kJ/mol]
      Exch11(S^2)                  -0.72553802 [mEh]      -0.45528198 [kcal/mol]      -1.90489981 [kJ/mol]
      Exch12(S^2)                   4.52895325 [mEh]       2.84196107 [kcal/mol]      11.89076512 [kJ/mol]

    Induction                     -39.07487647 [mEh]     -24.51985517 [kcal/mol]    -102.59107403 [kJ/mol]
      Ind20,r                     -65.47106513 [mEh]     -41.08371363 [kcal/mol]    -171.89425782 [kJ/mol]
      Ind22                        -9.55179036 [mEh]      -5.99383894 [kcal/mol]     -25.07822213 [kJ/mol]
      Exch-Ind20,r                 29.44705483 [mEh]      18.47830588 [kcal/mol]      77.31323181 [kJ/mol]
      Exch-Ind22                    4.29612828 [mEh]       2.69586120 [kcal/mol]      11.27948324 [kJ/mol]
      delta HF,r (2)                2.20479591 [mEh]       1.38353032 [kcal/mol]       5.78869086 [kJ/mol]

    Dispersion                     -3.16530602 [mEh]      -1.98625951 [kcal/mol]      -8.31050980 [kJ/mol]
      Disp20                       -3.16114405 [mEh]      -1.98364784 [kcal/mol]      -8.29958257 [kJ/mol]
      Disp21                       -0.07894761 [mEh]      -0.04954037 [kcal/mol]      -0.20727692 [kJ/mol]
      Disp22 (SDQ)                 -0.19777168 [mEh]      -0.12410360 [kcal/mol]      -0.51924947 [kJ/mol]
      Disp22 (T)                   -0.26938575 [mEh]      -0.16904211 [kcal/mol]      -0.70727218 [kJ/mol]
      Est. Disp22 (T)              -0.30865537 [mEh]      -0.19368417 [kcal/mol]      -0.81037457 [kJ/mol]
      Exch-Disp20                   0.58121270 [mEh]       0.36471647 [kcal/mol]       1.52597373 [kJ/mol]

  Total HF                       -139.70179556 [mEh]     -87.66420022 [kcal/mol]    -366.78701370 [kJ/mol]
  Total SAPT0                    -142.28172691 [mEh]     -89.28313158 [kcal/mol]    -373.56062254 [kJ/mol]
  Total SAPT2                    -135.48021135 [mEh]     -85.01511613 [kcal/mol]    -355.70324589 [kJ/mol]
  Total SAPT2+                   -136.06558601 [mEh]     -85.38244428 [kcal/mol]    -357.24014685 [kJ/mol]

  Special recipe for scaled SAPT0 (see Manual):
    Electrostatics sSAPT0        -139.79028645 [mEh]     -87.71972909 [kcal/mol]    -367.01934651 [kJ/mol]
    Exchange sSAPT0                33.90770528 [mEh]      21.27740630 [kcal/mol]      89.02466795 [kJ/mol]
    Induction sSAPT0              -33.70646399 [mEh]     -21.15112548 [kcal/mol]     -88.49630902 [kJ/mol]
    Dispersion sSAPT0              -2.57770594 [mEh]      -1.61753490 [kcal/mol]      -6.76776601 [kJ/mol]
  Total sSAPT0                   -142.16675110 [mEh]     -89.21098317 [kcal/mol]    -373.25875359 [kJ/mol]
  --------------------------------------------------------------------------------------------------------

*** Psi4 exiting successfully. Buy a developer a beer!
