                               Psi4 1.9 release

  ==> Input File <==

--------------------------------------------------------------------------
MEMORY 60 GB

molecule dimer {
1 1
Na     0.000000     0.000000     0.000000
--
0 1
O      2.497786    -0.242273     0.422092
H      3.049045    -0.461710    -0.372715
H      2.916442     0.393536     1.013630
O     -0.170722     1.880488     1.566801
H     -0.585546     2.675444     1.117741
H     -0.725283     1.778538     2.397862
O     -0.123890    -2.509853    -0.843574
H     -0.312475    -3.220754    -0.195645
H     -0.767002    -2.582567    -1.518445
O     -2.372716     0.104252     0.086632
H     -3.016397     0.698396     0.520165
H     -2.302894    -0.639156     0.705936

units ang
no_reorient
no_com
symmetry c1
}

set {
basis        aug-cc-pVTZ
scf_type     df
}

energy("sapt2+")
--------------------------------------------------------------------------

  //              Dimer HF             //
    Molecular point group: c1
  Charge       = 1
  Multiplicity = 1
  Basis Set: AUG-CC-PVTZ
    Blend: AUG-CC-PVTZ
  Basis Set: (AUG-CC-PVTZ AUX)
    Blend: AUG-CC-PVTZ-JKFIT + DEF2-UNIVERSAL-JKFIT
  @DF-RHF Final Energy:  -466.00420334125272
    Total Energy =                       -466.0042033412527189
 Dipole X            :          4.9014712           -5.8589938           -0.9575226
 Dipole Y            :         14.2528201          -14.1679590            0.0848611
 Dipole Z            :        -24.6533483           25.5569150            0.9035667
 Magnitude           :                                                    1.3192740
  //            Monomer A HF           //
    Molecular point group: c1
  Multiplicity = 1
  Basis Set: AUG-CC-PVTZ
    Blend: AUG-CC-PVTZ
  Basis Set: (AUG-CC-PVTZ AUX)
    Blend: AUG-CC-PVTZ-JKFIT + DEF2-UNIVERSAL-JKFIT
  @DF-RHF Final Energy:  -161.67607537772849
    Total Energy =                       -161.6760753777284947
  //            Monomer B HF           //
    Molecular point group: c1

    Geometry (in Angstrom), charge = 0, multiplicity = 1:

       Center              X                  Y                   Z               Mass
    ------------   -----------------  -----------------  -----------------  -----------------
      Gh(NA)          0.000000000000     0.000000000000     0.000000000000    22.989769282000
         O            2.497786000000    -0.242273000000     0.422092000000    15.994914619570
         H            3.049045000000    -0.461710000000    -0.372715000000     1.007825032230
         H            2.916442000000     0.393536000000     1.013630000000     1.007825032230
         O           -0.170722000000     1.880488000000     1.566801000000    15.994914619570
         H           -0.585546000000     2.675444000000     1.117741000000     1.007825032230
         H           -0.725283000000     1.778538000000     2.397862000000     1.007825032230
         O           -0.123890000000    -2.509853000000    -0.843574000000    15.994914619570
         H           -0.312475000000    -3.220754000000    -0.195645000000     1.007825032230
         H           -0.767002000000    -2.582567000000    -1.518445000000     1.007825032230
         O           -2.372716000000     0.104252000000     0.086632000000    15.994914619570
         H           -3.016397000000     0.698396000000     0.520165000000     1.007825032230
         H           -2.302894000000    -0.639156000000     0.705936000000     1.007825032230

  Charge       = 0
  Multiplicity = 1
  Basis Set: AUG-CC-PVTZ
    Blend: AUG-CC-PVTZ
  Basis Set: (AUG-CC-PVTZ AUX)
    Blend: AUG-CC-PVTZ-JKFIT + DEF2-UNIVERSAL-JKFIT

    Orbital Energies [Eh]
    ---------------------

    Doubly Occupied:

       1A    -20.558554     2A    -20.553992     3A    -20.548174
       4A    -20.536548     5A     -1.334364     6A     -1.329874
       7A     -1.314931     8A     -1.307278     9A     -0.703983
      10A     -0.691795    11A     -0.690483    12A     -0.673461
      13A     -0.567601    14A     -0.561274    15A     -0.560734
      16A     -0.532130    17A     -0.503476    18A     -0.491427
      19A     -0.479169    20A     -0.475350

  @DF-RHF Final Energy:  -304.21965279074107

   => Energetics <=

    Nuclear Repulsion Energy =            115.2428830075256769
    One-Electron Energy =                -650.0958692219987825
    Two-Electron Energy =                 230.6333334237319832
    Total Energy =                       -304.2196527907410655
 Dipole X            :          4.9953682           -5.8589938           -0.8636256
 Dipole Y            :         14.2724288          -14.1679590            0.1044699
 Dipole Z            :        -24.8418081           25.5569150            0.7151069
 Magnitude           :                                                    1.1261177

    SAPT Results
  --------------------------------------------------------------------------------------------------------
    Electrostatics                -95.47189736 [mEh]     -59.90952007 [kcal/mol]    -250.66143198 [kJ/mol]
      Elst10,r                   -100.69418599 [mEh]     -63.18655566 [kcal/mol]    -264.37254889 [kJ/mol]
      Elst12,r                      5.22228863 [mEh]       3.27703559 [kcal/mol]      13.71111691 [kJ/mol]

    Exchange                       19.58842782 [mEh]      12.29192403 [kcal/mol]      51.42941016 [kJ/mol]
      Exch10                       17.15033330 [mEh]      10.76199663 [kcal/mol]      45.02819388 [kJ/mol]
      Exch10(S^2)                  17.13202269 [mEh]      10.75050655 [kcal/mol]      44.98011939 [kJ/mol]
      Exch11(S^2)                  -0.28265443 [mEh]      -0.17736833 [kcal/mol]      -0.74210911 [kJ/mol]
      Exch12(S^2)                   2.72074895 [mEh]       1.70729574 [kcal/mol]       7.14332539 [kJ/mol]

    Induction                     -28.81887080 [mEh]     -18.08411445 [kcal/mol]     -75.66393487 [kJ/mol]
      Ind20,r                     -43.09149327 [mEh]     -27.04032027 [kcal/mol]    -113.13670000 [kJ/mol]
      Ind22                        -6.36019869 [mEh]      -3.99108493 [kcal/mol]     -16.69869936 [kJ/mol]
      Exch-Ind20,r                 16.75263605 [mEh]      10.51243783 [kcal/mol]      43.98403990 [kJ/mol]
      Exch-Ind22                    2.47264798 [mEh]       1.55161003 [kcal/mol]       6.49193638 [kJ/mol]
      delta HF,r (2)                1.40753712 [mEh]       0.88324288 [kcal/mol]       3.69548821 [kJ/mol]

    Dispersion                     -1.77928429 [mEh]      -1.11651775 [kcal/mol]      -4.67151027 [kJ/mol]
      Disp20                       -1.68210888 [mEh]      -1.05553926 [kcal/mol]      -4.41637626 [kJ/mol]
      Disp21                       -0.07550632 [mEh]      -0.04738093 [kcal/mol]      -0.19824182 [kJ/mol]
      Disp22 (SDQ)                 -0.10701315 [mEh]      -0.06715176 [kcal/mol]      -0.28096298 [kJ/mol]
      Disp22 (T)                   -0.14451796 [mEh]      -0.09068639 [kcal/mol]      -0.37943184 [kJ/mol]
      Est. Disp22 (T)              -0.16616528 [mEh]      -0.10427029 [kcal/mol]      -0.43626689 [kJ/mol]
      Exch-Disp20                   0.25150934 [mEh]       0.15782449 [kcal/mol]       0.66033769 [kJ/mol]

  Total HF                       -108.47517278 [mEh]     -68.06919859 [kcal/mol]    -284.80152691 [kJ/mol]
  Total SAPT0                    -109.90577232 [mEh]     -68.96691336 [kcal/mol]    -288.55756548 [kJ/mol]
  Total SAPT2                    -106.13293988 [mEh]     -66.59942525 [kcal/mol]    -278.65199526 [kJ/mol]
  Total SAPT2+                   -106.48162463 [mEh]     -66.81822824 [kcal/mol]    -279.56746695 [kJ/mol]

  Special recipe for scaled SAPT0 (see Manual):
    Electrostatics sSAPT0        -100.69418599 [mEh]     -63.18655566 [kcal/mol]    -264.37254889 [kJ/mol]
    Exchange sSAPT0                17.15033330 [mEh]      10.76199663 [kcal/mol]      45.02819388 [kJ/mol]
    Induction sSAPT0              -24.87754730 [mEh]     -15.61089662 [kcal/mol]     -65.31599144 [kJ/mol]
    Dispersion sSAPT0              -1.42979224 [mEh]      -0.89720818 [kcal/mol]      -3.75391901 [kJ/mol]
  Total sSAPT0                   -109.85119223 [mEh]     -68.93266383 [kcal/mol]    -288.41426547 [kJ/mol]
  --------------------------------------------------------------------------------------------------------

*** Psi4 exiting successfully. Buy a developer a beer!
