                               Psi4 1.9 release

  ==> Input File <==

--------------------------------------------------------------------------
MEMORY 60 GB

molecule dimer {
1 1
Na     0.000000     0.000000     0.000000
--
0 1
O      1.334000    -1.849241     0.833682
H      0.843314    -2.454108     0.292436
H      1.075079    -1.910830     1.778471
O      0.600992     2.170522     0.487660
H      0.984422     2.164393     1.361891
H     -0.125654     2.794966     0.541435
O     -0.992808     0.222812     2.227261
H     -1.843637     0.610825     2.337129
H     -0.512337     0.213665     3.094299
O     -0.600025    -1.874107    -1.325344
H     -0.153155    -2.069651    -2.176957
H     -1.332728    -2.491016    -1.134304
O     -2.219894     1.097809    -0.293701
H     -2.721279     0.507752    -0.888427
H     -2.724866     1.291058     0.464875

units ang
no_reorient
no_com
symmetry c1
}

set {
basis        aug-cc-pVTZ
scf_type     df
}

energy("sapt2+")
--------------------------------------------------------------------------

  //              Dimer HF             //
    Molecular point group: c1
  Charge       = 1
  Multiplicity = 1
  Basis Set: AUG-CC-PVTZ
    Blend: AUG-CC-PVTZ
  Basis Set: (AUG-CC-PVTZ AUX)
    Blend: AUG-CC-PVTZ-JKFIT + DEF2-UNIVERSAL-JKFIT
  @DF-RHF Final Energy:  -542.08151641087193
    Total Energy =                       -542.0815164108719273
 Dipole X            :         38.5974828          -40.6909454           -2.0934626
 Dipole Y            :          5.3769713           -6.0482310           -0.6712597
 Dipole Z            :        -38.6394148           39.8870389            1.2476242
 Magnitude           :                                                    2.5277938
  //            Monomer A HF           //
    Molecular point group: c1
  Multiplicity = 1
  Basis Set: AUG-CC-PVTZ
    Blend: AUG-CC-PVTZ
  Basis Set: (AUG-CC-PVTZ AUX)
    Blend: AUG-CC-PVTZ-JKFIT + DEF2-UNIVERSAL-JKFIT
  @DF-RHF Final Energy:  -161.67608971118352
    Total Energy =                       -161.6760897111834936
  //            Monomer B HF           //
    Molecular point group: c1

    Geometry (in Angstrom), charge = 0, multiplicity = 1:

       Center              X                  Y                   Z               Mass
    ------------   -----------------  -----------------  -----------------  -----------------
      Gh(NA)          0.000000000000     0.000000000000     0.000000000000    22.989769282000
         O            1.334000000000    -1.849241000000     0.833682000000    15.994914619570
         H            0.843314000000    -2.454108000000     0.292436000000     1.007825032230
         H            1.075079000000    -1.910830000000     1.778471000000     1.007825032230
         O            0.600992000000     2.170522000000     0.487660000000    15.994914619570
         H            0.984422000000     2.164393000000     1.361891000000     1.007825032230
         H           -0.125654000000     2.794966000000     0.541435000000     1.007825032230
         O           -0.992808000000     0.222812000000     2.227261000000    15.994914619570
         H           -1.843637000000     0.610825000000     2.337129000000     1.007825032230
         H           -0.512337000000     0.213665000000     3.094299000000     1.007825032230
         O           -0.600025000000    -1.874107000000    -1.325344000000    15.994914619570
         H           -0.153155000000    -2.069651000000    -2.176957000000     1.007825032230
         H           -1.332728000000    -2.491016000000    -1.134304000000     1.007825032230
         O           -2.219894000000     1.097809000000    -0.293701000000    15.994914619570
         H           -2.721279000000     0.507752000000    -0.888427000000     1.007825032230
         H           -2.724866000000     1.291058000000     0.464875000000     1.007825032230

  Charge       = 0
  Multiplicity = 1
  Basis Set: AUG-CC-PVTZ
    Blend: AUG-CC-PVTZ
  Basis Set: (AUG-CC-PVTZ AUX)
    Blend: AUG-CC-PVTZ-JKFIT + DEF2-UNIVERSAL-JKFIT

    Orbital Energies [Eh]
    ---------------------

    Doubly Occupied:

       1A    -20.562076     2A    -20.557398     3A    -20.545617
       4A    -20.522186     5A    -20.520571     6A     -1.339917
       7A     -1.334220     8A     -1.333071     9A     -1.309147
      10A     -1.301418    11A     -0.724109    12A     -0.715963
      13A     -0.706253    14A     -0.686661    15A     -0.675033
      16A     -0.565125    17A     -0.557931    18A     -0.553643
      19A     -0.539402    20A     -0.528260    21A     -0.503005
      22A     -0.502105    23A     -0.488089    24A     -0.461990
      25A     -0.459876

  @DF-RHF Final Energy:  -380.27107613026436

   => Energetics <=

    Nuclear Repulsion Energy =            190.8852542062241469
    One-Electron Energy =                -906.3265218203184759
    Two-Electron Energy =                 335.1701914838300240
    Total Energy =                       -380.2710761302643618
 Dipole X            :         38.8408423          -40.6909454           -1.8501032
 Dipole Y            :          5.4273839           -6.0482310           -0.6208471
 Dipole Z            :        -38.9003981           39.8870389            0.9866409
 Magnitude           :                                                    2.1867311

    SAPT Results
  --------------------------------------------------------------------------------------------------------
    Electrostatics               -124.33463978 [mEh]     -78.02116438 [kcal/mol]    -326.44055177 [kJ/mol]
      Elst10,r                   -131.37090730 [mEh]     -82.43648891 [kcal/mol]    -344.91426958 [kJ/mol]
      Elst12,r                      7.03626752 [mEh]       4.41532453 [kcal/mol]      18.47371782 [kJ/mol]

    Exchange                       32.71222292 [mEh]      20.52722979 [kcal/mol]      85.88592946 [kJ/mol]
      Exch10                       28.97630106 [mEh]      18.18290343 [kcal/mol]      76.07726795 [kJ/mol]
      Exch10(S^2)                  28.94398716 [mEh]      18.16262615 [kcal/mol]      75.99242783 [kJ/mol]
      Exch11(S^2)                  -0.60858867 [mEh]      -0.38189515 [kcal/mol]      -1.59784932 [kJ/mol]
      Exch12(S^2)                   4.34451053 [mEh]       2.72622152 [kcal/mol]      11.40651083 [kJ/mol]

    Induction                     -37.21377806 [mEh]     -23.35199829 [kcal/mol]     -97.70476084 [kJ/mol]
      Ind20,r                     -60.24397671 [mEh]     -37.80366612 [kcal/mol]    -158.17053905 [kJ/mol]
      Ind22                        -9.32899150 [mEh]      -5.85403055 [kcal/mol]     -24.49326382 [kJ/mol]
      Exch-Ind20,r                 26.29050201 [mEh]      16.49753908 [kcal/mol]      69.02570352 [kJ/mol]
      Exch-Ind22                    4.07117663 [mEh]       2.55470190 [kcal/mol]      10.68887276 [kJ/mol]
      delta HF,r (2)                1.99751151 [mEh]       1.25345740 [kcal/mol]       5.24446574 [kJ/mol]

    Dispersion                     -2.90807294 [mEh]      -1.82484332 [kcal/mol]      -7.63514444 [kJ/mol]
      Disp20                       -2.84765368 [mEh]      -1.78692966 [kcal/mol]      -7.47651370 [kJ/mol]
      Disp21                       -0.08680522 [mEh]      -0.05447110 [kcal/mol]      -0.22790708 [kJ/mol]
      Disp22 (SDQ)                 -0.18306146 [mEh]      -0.11487280 [kcal/mol]      -0.48062779 [kJ/mol]
      Disp22 (T)                   -0.24565348 [mEh]      -0.15414989 [kcal/mol]      -0.64496313 [kJ/mol]
      Est. Disp22 (T)              -0.28024573 [mEh]      -0.17585685 [kcal/mol]      -0.73578506 [kJ/mol]
      Exch-Disp20                   0.48969315 [mEh]       0.30728709 [kcal/mol]       1.28568919 [kJ/mol]

  Total HF                       -134.35056942 [mEh]     -84.30625512 [kcal/mol]    -352.73737143 [kJ/mol]
  Total SAPT0                    -136.70852995 [mEh]     -85.78589769 [kcal/mol]    -358.92819594 [kJ/mol]
  Total SAPT2                    -131.19415545 [mEh]     -82.32557545 [kcal/mol]    -344.45020767 [kJ/mol]
  Total SAPT2+                   -131.74426786 [mEh]     -82.67077620 [kcal/mol]    -345.89452760 [kJ/mol]

  Special recipe for scaled SAPT0 (see Manual):
    Electrostatics sSAPT0        -131.37090730 [mEh]     -82.43648891 [kcal/mol]    -344.91426958 [kJ/mol]
    Exchange sSAPT0                28.97630106 [mEh]      18.18290343 [kcal/mol]      76.07726795 [kJ/mol]
    Induction sSAPT0              -31.86781044 [mEh]     -19.99735296 [kcal/mol]     -83.66892479 [kJ/mol]
    Dispersion sSAPT0              -2.35631857 [mEh]      -1.47861223 [kcal/mol]      -6.18651356 [kJ/mol]
  Total sSAPT0                   -136.61873525 [mEh]     -85.72955067 [kcal/mol]    -358.69243999 [kJ/mol]
  --------------------------------------------------------------------------------------------------------

*** Psi4 exiting successfully. Buy a developer a beer!
