                               Psi4 1.9 release

  ==> Input File <==

--------------------------------------------------------------------------
MEMORY 60 GB

molecule dimer {
1 1
Na     0.000000     0.000000     0.000000
--
0 1
O     -1.116986    -1.262600     1.452823
H     -1.933314    -0.949816     1.831289
H     -1.388892    -2.089831     1.067611
O     -2.064765    -0.369848    -1.354204
H     -2.208321     0.074992    -2.228213
H     -2.865148    -0.793867    -1.087041
O     -0.752363     1.854057     1.354572
H     -1.096528     1.642435     2.231559
H     -1.447594     2.380144     0.877744
O      2.350808     0.315241     0.892599
H      3.010726     0.173134     0.141394
H      2.495966     1.172138     1.167830
O      1.084462     1.438589    -1.573635
H      1.544269     0.800080    -2.144693
H      1.595583     2.266747    -1.520243

units ang
no_reorient
no_com
symmetry c1
}

set {
basis        aug-cc-pVTZ
scf_type     df
}

energy("sapt2+")
--------------------------------------------------------------------------

  //              Dimer HF             //
    Molecular point group: c1
  Charge       = 1
  Multiplicity = 1
  Basis Set: AUG-CC-PVTZ
    Blend: AUG-CC-PVTZ
  Basis Set: (AUG-CC-PVTZ AUX)
    Blend: AUG-CC-PVTZ-JKFIT + DEF2-UNIVERSAL-JKFIT
  @DF-RHF Final Energy:  -542.08261795953013
    Total Energy =                       -542.0826179595301255
 Dipole X            :         10.9133465          -11.8750484           -0.9617019
 Dipole Y            :        -38.0130403           38.7009637            0.6879234
 Dipole Z            :        -13.0660742           12.3105774           -0.7554968
 Magnitude           :                                                    1.4031694
  //            Monomer A HF           //
    Molecular point group: c1
  Multiplicity = 1
  Basis Set: AUG-CC-PVTZ
    Blend: AUG-CC-PVTZ
  Basis Set: (AUG-CC-PVTZ AUX)
    Blend: AUG-CC-PVTZ-JKFIT + DEF2-UNIVERSAL-JKFIT
  @DF-RHF Final Energy:  -161.67608974925002
    Total Energy =                       -161.6760897492499964
  //            Monomer B HF           //
    Molecular point group: c1

    Geometry (in Angstrom), charge = 0, multiplicity = 1:

       Center              X                  Y                   Z               Mass
    ------------   -----------------  -----------------  -----------------  -----------------
      Gh(NA)          0.000000000000     0.000000000000     0.000000000000    22.989769282000
         O           -1.116986000000    -1.262600000000     1.452823000000    15.994914619570
         H           -1.933314000000    -0.949816000000     1.831289000000     1.007825032230
         H           -1.388892000000    -2.089831000000     1.067611000000     1.007825032230
         O           -2.064765000000    -0.369848000000    -1.354204000000    15.994914619570
         H           -2.208321000000     0.074992000000    -2.228213000000     1.007825032230
         H           -2.865148000000    -0.793867000000    -1.087041000000     1.007825032230
         O           -0.752363000000     1.854057000000     1.354572000000    15.994914619570
         H           -1.096528000000     1.642435000000     2.231559000000     1.007825032230
         H           -1.447594000000     2.380144000000     0.877744000000     1.007825032230
         O            2.350808000000     0.315241000000     0.892599000000    15.994914619570
         H            3.010726000000     0.173134000000     0.141394000000     1.007825032230
         H            2.495966000000     1.172138000000     1.167830000000     1.007825032230
         O            1.084462000000     1.438589000000    -1.573635000000    15.994914619570
         H            1.544269000000     0.800080000000    -2.144693000000     1.007825032230
         H            1.595583000000     2.266747000000    -1.520243000000     1.007825032230

  Charge       = 0
  Multiplicity = 1
  Basis Set: AUG-CC-PVTZ
    Blend: AUG-CC-PVTZ
  Basis Set: (AUG-CC-PVTZ AUX)
    Blend: AUG-CC-PVTZ-JKFIT + DEF2-UNIVERSAL-JKFIT

    Orbital Energies [Eh]
    ---------------------

    Doubly Occupied:

       1A    -20.547855     2A    -20.543198     3A    -20.536322
       4A    -20.533908     5A    -20.526450     6A     -1.327720
       7A     -1.324405     8A     -1.319233     9A     -1.312849
      10A     -1.307091    11A     -0.702341    12A     -0.695947
      13A     -0.684240    14A     -0.677373    15A     -0.676182
      16A     -0.557528    17A     -0.553330    18A     -0.546968
      19A     -0.540114    20A     -0.537453    21A     -0.493275
      22A     -0.489605    23A     -0.479087    24A     -0.468769
      25A     -0.458426

  @DF-RHF Final Energy:  -380.26667508165707

   => Energetics <=

    Nuclear Repulsion Energy =            186.8415411448471843
    One-Electron Energy =                -898.5370894310218546
    Two-Electron Energy =                 331.4288732045176289
    Total Energy =                       -380.2666750816570698
 Dipole X            :         11.0331910          -11.8750484           -0.8418574
 Dipole Y            :        -38.2385543           38.7009637            0.4624093
 Dipole Z            :        -13.1214375           12.3105774           -0.8108601
 Magnitude           :                                                    1.2569966

    SAPT Results
  --------------------------------------------------------------------------------------------------------
    Electrostatics               -129.26525260 [mEh]     -81.11517063 [kcal/mol]    -339.38587393 [kJ/mol]
      Elst10,r                   -137.26529536 [mEh]     -86.13527326 [kcal/mol]    -360.38998333 [kJ/mol]
      Elst12,r                      8.00004277 [mEh]       5.02010263 [kcal/mol]      21.00410939 [kJ/mol]

    Exchange                       33.16907896 [mEh]      20.81391129 [kcal/mol]      87.08540482 [kJ/mol]
      Exch10                       29.65496274 [mEh]      18.60877006 [kcal/mol]      77.85909395 [kJ/mol]
      Exch10(S^2)                  29.60949241 [mEh]      18.58023700 [kcal/mol]      77.73971162 [kJ/mol]
      Exch11(S^2)                  -0.60914982 [mEh]      -0.38224728 [kcal/mol]      -1.59932262 [kJ/mol]
      Exch12(S^2)                   4.12326604 [mEh]       2.58738850 [kcal/mol]      10.82563349 [kJ/mol]

    Induction                     -37.28223393 [mEh]     -23.39495500 [kcal/mol]     -97.88449171 [kJ/mol]
      Ind20,r                     -60.61180842 [mEh]     -38.03448400 [kcal/mol]    -159.13628108 [kJ/mol]
      Ind22                        -8.92653386 [mEh]      -5.60148457 [kcal/mol]     -23.43661143 [kJ/mol]
      Exch-Ind20,r                 26.39366157 [mEh]      16.56227268 [kcal/mol]      69.29654889 [kJ/mol]
      Exch-Ind22                    3.88709593 [mEh]       2.43918952 [kcal/mol]      10.20556895 [kJ/mol]
      delta HF,r (2)                1.97535085 [mEh]       1.23955137 [kcal/mol]       5.18628295 [kJ/mol]

    Dispersion                     -2.87402935 [mEh]      -1.80348065 [kcal/mol]      -7.54576303 [kJ/mol]
      Disp20                       -2.82884180 [mEh]      -1.77512503 [kcal/mol]      -7.42712313 [kJ/mol]
      Disp21                       -0.08012474 [mEh]      -0.05027903 [kcal/mol]      -0.21036747 [kJ/mol]
      Disp22 (SDQ)                 -0.18177543 [mEh]      -0.11406581 [kcal/mol]      -0.47725133 [kJ/mol]
      Disp22 (T)                   -0.24427814 [mEh]      -0.15328684 [kcal/mol]      -0.64135216 [kJ/mol]
      Est. Disp22 (T)              -0.28013130 [mEh]      -0.17578504 [kcal/mol]      -0.73548463 [kJ/mol]
      Exch-Disp20                   0.49684392 [mEh]       0.31177427 [kcal/mol]       1.30446353 [kJ/mol]

  Total HF                       -139.85312862 [mEh]     -87.75916315 [kcal/mol]    -367.18433861 [kJ/mol]
  Total SAPT0                    -142.18512651 [mEh]     -89.22251391 [kcal/mol]    -373.30699821 [kJ/mol]
  Total SAPT2                    -135.71040545 [mEh]     -85.15956511 [kcal/mol]    -356.30762042 [kJ/mol]
  Total SAPT2+                   -136.25243692 [mEh]     -85.49969499 [kcal/mol]    -357.73072386 [kJ/mol]

  Special recipe for scaled SAPT0 (see Manual):
    Electrostatics sSAPT0        -137.26529536 [mEh]     -86.13527326 [kcal/mol]    -360.38998333 [kJ/mol]
    Exchange sSAPT0                29.65496274 [mEh]      18.60877006 [kcal/mol]      77.85909395 [kJ/mol]
    Induction sSAPT0              -32.12101353 [mEh]     -20.15624030 [kcal/mol]     -84.33370940 [kJ/mol]
    Dispersion sSAPT0              -2.32970541 [mEh]      -1.46191221 [kcal/mol]      -6.11664070 [kJ/mol]
  Total sSAPT0                   -142.06105156 [mEh]     -89.14465571 [kcal/mol]    -372.98123948 [kJ/mol]
  --------------------------------------------------------------------------------------------------------

*** Psi4 exiting successfully. Buy a developer a beer!
