                               Psi4 1.9 release

  ==> Input File <==

--------------------------------------------------------------------------
MEMORY 60 GB

molecule dimer {
1 1
Na     0.000000     0.000000     0.000000
--
0 1
O     -0.835240     0.473484     2.119495
H     -0.454693     1.245275     2.586267
H     -1.132360    -0.183285     2.785897
O      0.033539    -2.290098    -0.664363
H     -0.004054    -2.576443     0.261397
H      0.855844    -2.546782    -1.166561
O      1.583864     1.928752    -0.019939
H      1.499354     1.829133    -1.014737
H      1.387146     2.888641     0.263931

units ang
no_reorient
no_com
symmetry c1
}

set {
basis        aug-cc-pVTZ
scf_type     df
}

energy("sapt2+")
--------------------------------------------------------------------------

  //              Dimer HF             //
    Molecular point group: c1
  Charge       = 1
  Multiplicity = 1
  Basis Set: AUG-CC-PVTZ
    Blend: AUG-CC-PVTZ
  Basis Set: (AUG-CC-PVTZ AUX)
    Blend: AUG-CC-PVTZ-JKFIT + DEF2-UNIVERSAL-JKFIT
  @DF-RHF Final Energy:  -389.91804461821027
    Total Energy =                       -389.9180446182102742
 Dipole X            :        -15.3856872           15.8898396            0.5041524
 Dipole Y            :         -2.6364258            2.9359598            0.2995340
 Dipole Z            :        -27.9511216           28.7195625            0.7684409
 Magnitude           :                                                    0.9666394
  //            Monomer A HF           //
    Molecular point group: c1
  Multiplicity = 1
  Basis Set: AUG-CC-PVTZ
    Blend: AUG-CC-PVTZ
  Basis Set: (AUG-CC-PVTZ AUX)
    Blend: AUG-CC-PVTZ-JKFIT + DEF2-UNIVERSAL-JKFIT
  @DF-RHF Final Energy:  -161.67607128115930
    Total Energy =                       -161.6760712811592953
  //            Monomer B HF           //
    Molecular point group: c1

    Geometry (in Angstrom), charge = 0, multiplicity = 1:

       Center              X                  Y                   Z               Mass
    ------------   -----------------  -----------------  -----------------  -----------------
      Gh(NA)          0.000000000000     0.000000000000     0.000000000000    22.989769282000
         O           -0.835240000000     0.473484000000     2.119495000000    15.994914619570
         H           -0.454693000000     1.245275000000     2.586267000000     1.007825032230
         H           -1.132360000000    -0.183285000000     2.785897000000     1.007825032230
         O            0.033539000000    -2.290098000000    -0.664363000000    15.994914619570
         H           -0.004054000000    -2.576443000000     0.261397000000     1.007825032230
         H            0.855844000000    -2.546782000000    -1.166561000000     1.007825032230
         O            1.583864000000     1.928752000000    -0.019939000000    15.994914619570
         H            1.499354000000     1.829133000000    -1.014737000000     1.007825032230
         H            1.387146000000     2.888641000000     0.263931000000     1.007825032230

  Charge       = 0
  Multiplicity = 1
  Basis Set: AUG-CC-PVTZ
    Blend: AUG-CC-PVTZ
  Basis Set: (AUG-CC-PVTZ AUX)
    Blend: AUG-CC-PVTZ-JKFIT + DEF2-UNIVERSAL-JKFIT

    Orbital Energies [Eh]
    ---------------------

    Doubly Occupied:

       1A    -20.563018     2A    -20.557258     3A    -20.552221
       4A     -1.327099     5A     -1.319396     6A     -1.313262
       7A     -0.709436     8A     -0.701174     9A     -0.689333
      10A     -0.559684    11A     -0.552265    12A     -0.544412
      13A     -0.496326    14A     -0.492389    15A     -0.490313

  @DF-RHF Final Energy:  -228.15947054432928

   => Energetics <=

    Nuclear Repulsion Energy =             65.2278534450049676
    One-Electron Energy =                -445.0394693306890304
    Two-Electron Energy =                 151.6521453413548102
    Total Energy =                       -228.1594705443292810
 Dipole X            :        -15.4906132           15.8898396            0.3992264
 Dipole Y            :         -2.6603815            2.9359598            0.2755782
 Dipole Z            :        -28.1704557           28.7195625            0.5491069
 Magnitude           :                                                    0.7326960

    SAPT Results
  --------------------------------------------------------------------------------------------------------
    Electrostatics                -78.84550418 [mEh]     -49.47630084 [kcal/mol]    -207.00884271 [kJ/mol]
      Elst10,r                    -81.87367726 [mEh]     -51.37650813 [kcal/mol]    -214.95931002 [kJ/mol]
      Elst12,r                      3.02817307 [mEh]       1.90020729 [kcal/mol]       7.95046731 [kJ/mol]

    Exchange                       24.14234159 [mEh]      15.14954807 [kcal/mol]      63.38570912 [kJ/mol]
      Exch10                       21.24802207 [mEh]      13.33333515 [kcal/mol]      55.78667425 [kJ/mol]
      Exch10(S^2)                  21.22018869 [mEh]      13.31586944 [kcal/mol]      55.71359774 [kJ/mol]
      Exch11(S^2)                  -0.31491991 [mEh]      -0.19761523 [kcal/mol]      -0.82682212 [kJ/mol]
      Exch12(S^2)                   3.20923944 [mEh]       2.01382815 [kcal/mol]       8.42585699 [kJ/mol]

    Induction                     -25.49337573 [mEh]     -15.99733479 [kcal/mol]     -66.93284877 [kJ/mol]
      Ind20,r                     -45.60591791 [mEh]     -28.61814555 [kcal/mol]    -119.73832099 [kJ/mol]
      Ind22                        -6.91402194 [mEh]      -4.33861427 [kcal/mol]     -18.15276209 [kJ/mol]
      Exch-Ind20,r                 21.75267243 [mEh]      13.65000803 [kcal/mol]      57.11163360 [kJ/mol]
      Exch-Ind22                    3.29778374 [mEh]       2.06939054 [kcal/mol]       8.65833001 [kJ/mol]
      delta HF,r (2)                1.97610795 [mEh]       1.24002646 [kcal/mol]       5.18827071 [kJ/mol]

    Dispersion                     -1.64707079 [mEh]      -1.03355252 [kcal/mol]      -4.32438375 [kJ/mol]
      Disp20                       -1.60183536 [mEh]      -1.00516686 [kcal/mol]      -4.20561816 [kJ/mol]
      Disp21                       -0.07972856 [mEh]      -0.05003043 [kcal/mol]      -0.20932731 [kJ/mol]
      Disp22 (SDQ)                 -0.10015203 [mEh]      -0.06284635 [kcal/mol]      -0.26294912 [kJ/mol]
      Disp22 (T)                   -0.12831438 [mEh]      -0.08051849 [kcal/mol]      -0.33688935 [kJ/mol]
      Est. Disp22 (T)              -0.15587636 [mEh]      -0.09781389 [kcal/mol]      -0.40925333 [kJ/mol]
      Exch-Disp20                   0.29052153 [mEh]       0.18230501 [kcal/mol]       0.76276416 [kJ/mol]

  Total HF                        -82.50279272 [mEh]     -51.77128405 [kcal/mol]    -216.61105245 [kJ/mol]
  Total SAPT0                     -83.81410655 [mEh]     -52.59414590 [kcal/mol]    -220.05390644 [kJ/mol]
  Total SAPT2                     -81.50785216 [mEh]     -51.14694942 [kcal/mol]    -213.99883635 [kJ/mol]
  Total SAPT2+                    -81.84360911 [mEh]     -51.35764008 [kcal/mol]    -214.88036611 [kJ/mol]

  Special recipe for scaled SAPT0 (see Manual):
    Electrostatics sSAPT0         -81.87367726 [mEh]     -51.37650813 [kcal/mol]    -214.95931002 [kJ/mol]
    Exchange sSAPT0                21.24802207 [mEh]      13.33333515 [kcal/mol]      55.78667425 [kJ/mol]
    Induction sSAPT0              -21.79142980 [mEh]     -13.67432865 [kcal/mol]     -57.21339105 [kJ/mol]
    Dispersion sSAPT0              -1.31016915 [mEh]      -0.82214355 [kcal/mol]      -3.43984863 [kJ/mol]
  Total sSAPT0                    -83.72725414 [mEh]     -52.53964518 [kcal/mol]    -219.82587545 [kJ/mol]
  --------------------------------------------------------------------------------------------------------

*** Psi4 exiting successfully. Buy a developer a beer!
