                               Psi4 1.9 release

  ==> Input File <==

--------------------------------------------------------------------------
MEMORY 60 GB

molecule dimer {
1 1
Na     0.000000     0.000000     0.000000
--
0 1
O     -2.261961     1.217191     0.375676
H     -2.319771     0.725206     1.230404
H     -2.115469     2.079564     0.782307
O      0.486184     1.167985    -1.873883
H      1.475220     1.083745    -1.817610
H      0.344352     2.132995    -1.761720
O      0.722217     0.847010     2.215250
H      1.295874     1.594855     2.044533
H      1.115391     0.266313     2.859288
O      2.364881    -0.815744    -0.208489
H      2.395551    -1.654726     0.299478
H      2.540953    -0.931226    -1.162329
O     -1.292387    -1.428775     1.297161
H     -1.008717    -1.931975     2.092847
H     -1.907300    -1.938032     0.765697

units ang
no_reorient
no_com
symmetry c1
}

set {
basis        aug-cc-pVTZ
scf_type     df
}

energy("sapt2+")
--------------------------------------------------------------------------

  //              Dimer HF             //
    Molecular point group: c1
  Charge       = 1
  Multiplicity = 1
  Basis Set: AUG-CC-PVTZ
    Blend: AUG-CC-PVTZ
  Basis Set: (AUG-CC-PVTZ AUX)
    Blend: AUG-CC-PVTZ-JKFIT + DEF2-UNIVERSAL-JKFIT
  @DF-RHF Final Energy:  -542.07619128228475
    Total Energy =                       -542.0761912822847535
 Dipole X            :         -2.4820224            3.7181420            1.2361196
 Dipole Y            :        -18.0448244           17.6274692           -0.4173552
 Dipole Z            :        -36.0663088           37.3761655            1.3098567
 Magnitude           :                                                    1.8487568
  //            Monomer A HF           //
    Molecular point group: c1
  Multiplicity = 1
  Basis Set: AUG-CC-PVTZ
    Blend: AUG-CC-PVTZ
  Basis Set: (AUG-CC-PVTZ AUX)
    Blend: AUG-CC-PVTZ-JKFIT + DEF2-UNIVERSAL-JKFIT
  @DF-RHF Final Energy:  -161.67608997277785
    Total Energy =                       -161.6760899727778451
  //            Monomer B HF           //
    Molecular point group: c1

    Geometry (in Angstrom), charge = 0, multiplicity = 1:

       Center              X                  Y                   Z               Mass
    ------------   -----------------  -----------------  -----------------  -----------------
      Gh(NA)          0.000000000000     0.000000000000     0.000000000000    22.989769282000
         O           -2.261961000000     1.217191000000     0.375676000000    15.994914619570
         H           -2.319771000000     0.725206000000     1.230404000000     1.007825032230
         H           -2.115469000000     2.079564000000     0.782307000000     1.007825032230
         O            0.486184000000     1.167985000000    -1.873883000000    15.994914619570
         H            1.475220000000     1.083745000000    -1.817610000000     1.007825032230
         H            0.344352000000     2.132995000000    -1.761720000000     1.007825032230
         O            0.722217000000     0.847010000000     2.215250000000    15.994914619570
         H            1.295874000000     1.594855000000     2.044533000000     1.007825032230
         H            1.115391000000     0.266313000000     2.859288000000     1.007825032230
         O            2.364881000000    -0.815744000000    -0.208489000000    15.994914619570
         H            2.395551000000    -1.654726000000     0.299478000000     1.007825032230
         H            2.540953000000    -0.931226000000    -1.162329000000     1.007825032230
         O           -1.292387000000    -1.428775000000     1.297161000000    15.994914619570
         H           -1.008717000000    -1.931975000000     2.092847000000     1.007825032230
         H           -1.907300000000    -1.938032000000     0.765697000000     1.007825032230

  Charge       = 0
  Multiplicity = 1
  Basis Set: AUG-CC-PVTZ
    Blend: AUG-CC-PVTZ
  Basis Set: (AUG-CC-PVTZ AUX)
    Blend: AUG-CC-PVTZ-JKFIT + DEF2-UNIVERSAL-JKFIT

    Orbital Energies [Eh]
    ---------------------

    Doubly Occupied:

       1A    -20.555347     2A    -20.551977     3A    -20.544558
       4A    -20.543052     5A    -20.526613     6A     -1.331946
       7A     -1.328428     8A     -1.326325     9A     -1.309235
      10A     -1.304220    11A     -0.714069    12A     -0.712670
      13A     -0.707257    14A     -0.667565    15A     -0.645151
      16A     -0.562100    17A     -0.554591    18A     -0.553777
      19A     -0.549491    20A     -0.545757    21A     -0.497195
      22A     -0.491901    23A     -0.487181    24A     -0.477016
      25A     -0.463060

  @DF-RHF Final Energy:  -380.27455174006127

   => Energetics <=

    Nuclear Repulsion Energy =            186.2551193438897030
    One-Electron Energy =                -897.1583738688339054
    Two-Electron Energy =                 330.6287027848829894
    Total Energy =                       -380.2745517400612698
 Dipole X            :         -2.5474743            3.7181420            1.1706677
 Dipole Y            :        -18.1336213           17.6274692           -0.5061520
 Dipole Z            :        -36.2775478           37.3761655            1.0986177
 Magnitude           :                                                    1.6833340

    SAPT Results
  --------------------------------------------------------------------------------------------------------
    Electrostatics               -119.48275311 [mEh]     -74.97655953 [kcal/mol]    -313.70192506 [kJ/mol]
      Elst10,r                   -124.71608921 [mEh]     -78.26052751 [kcal/mol]    -327.44204710 [kJ/mol]
      Elst12,r                      5.23333610 [mEh]       3.28396798 [kcal/mol]      13.74012204 [kJ/mol]

    Exchange                       35.14437523 [mEh]      22.05342840 [kcal/mol]      92.27154444 [kJ/mol]
      Exch10                       30.99926921 [mEh]      19.45233511 [kcal/mol]      81.38857010 [kJ/mol]
      Exch10(S^2)                  30.95781801 [mEh]      19.42632409 [kcal/mol]      81.27973998 [kJ/mol]
      Exch11(S^2)                  -0.64967910 [mEh]      -0.40767979 [kcal/mol]      -1.70573224 [kJ/mol]
      Exch12(S^2)                   4.79478511 [mEh]       3.00877308 [kcal/mol]      12.58870658 [kJ/mol]

    Induction                     -37.26668282 [mEh]     -23.38519652 [kcal/mol]     -97.84366226 [kJ/mol]
      Ind20,r                     -63.06643811 [mEh]     -39.57478739 [kcal/mol]    -165.58091043 [kJ/mol]
      Ind22                       -10.08239910 [mEh]      -6.32680095 [kcal/mol]     -26.47133519 [kJ/mol]
      Exch-Ind20,r                 29.07662886 [mEh]      18.24586007 [kcal/mol]      76.34067854 [kJ/mol]
      Exch-Ind22                    4.64846574 [mEh]       2.91695629 [kcal/mol]      12.20454511 [kJ/mol]
      delta HF,r (2)                2.15705980 [mEh]       1.35357546 [kcal/mol]       5.66335972 [kJ/mol]

    Dispersion                     -2.88737120 [mEh]      -1.81185279 [kcal/mol]      -7.58079205 [kJ/mol]
      Disp20                       -2.83460068 [mEh]      -1.77873878 [kcal/mol]      -7.44224305 [kJ/mol]
      Disp21                       -0.09592136 [mEh]      -0.06019156 [kcal/mol]      -0.25184150 [kJ/mol]
      Disp22 (SDQ)                 -0.19078020 [mEh]      -0.11971638 [kcal/mol]      -0.50089334 [kJ/mol]
      Disp22 (T)                   -0.25108182 [mEh]      -0.15755622 [kcal/mol]      -0.65921523 [kJ/mol]
      Est. Disp22 (T)              -0.28555481 [mEh]      -0.17918835 [kcal/mol]      -0.74972404 [kJ/mol]
      Exch-Disp20                   0.51948584 [mEh]       0.32598229 [kcal/mol]       1.36390988 [kJ/mol]

  Total HF                       -125.54956945 [mEh]     -78.78354426 [kcal/mol]    -329.63034917 [kJ/mol]
  Total SAPT0                    -127.86468428 [mEh]     -80.23630075 [kcal/mol]    -335.70868233 [kJ/mol]
  Total SAPT2                    -123.92017553 [mEh]     -77.76108414 [kcal/mol]    -325.35237604 [kJ/mol]
  Total SAPT2+                   -124.49243190 [mEh]     -78.12018043 [kcal/mol]    -326.85483493 [kJ/mol]

  Special recipe for scaled SAPT0 (see Manual):
    Electrostatics sSAPT0        -124.71608921 [mEh]     -78.26052751 [kcal/mol]    -327.44204710 [kJ/mol]
    Exchange sSAPT0                30.99926921 [mEh]      19.45233511 [kcal/mol]      81.38857010 [kJ/mol]
    Induction sSAPT0              -31.71579588 [mEh]     -19.90196238 [kcal/mol]     -83.26981061 [kJ/mol]
    Dispersion sSAPT0              -2.31302533 [mEh]      -1.45144531 [kcal/mol]      -6.07284717 [kJ/mol]
  Total sSAPT0                   -127.74564121 [mEh]     -80.16160009 [kcal/mol]    -335.39613478 [kJ/mol]
  --------------------------------------------------------------------------------------------------------

*** Psi4 exiting successfully. Buy a developer a beer!
