                               Psi4 1.9 release

  ==> Input File <==

--------------------------------------------------------------------------
MEMORY 60 GB

molecule dimer {
1 1
Na     0.000000     0.000000     0.000000
--
0 1
O      0.947812     1.899105     0.977031
H      1.807821     2.044401     0.657786
H      0.588989     2.792278     0.908818
O     -1.444642    -1.016969     1.456953
H     -1.254934    -1.253499     2.356975
H     -2.235372    -0.425228     1.524061
O      0.226467    -2.132852    -0.671381
H     -0.562565    -2.437496    -1.216545
H      0.659167    -2.880779    -0.216328
O     -1.530553     1.646078    -1.126636
H     -0.996697     2.420031    -1.296472
H     -2.107683     1.693328    -1.872568
O      1.383865     0.646444    -1.792448
H      1.257365     1.030067    -2.661942
H      2.278809     0.740204    -1.509904

units ang
no_reorient
no_com
symmetry c1
}

set {
basis        aug-cc-pVTZ
scf_type     df
}

energy("sapt2+")
--------------------------------------------------------------------------

  //              Dimer HF             //
    Molecular point group: c1
  Charge       = 1
  Multiplicity = 1
  Basis Set: AUG-CC-PVTZ
    Blend: AUG-CC-PVTZ
  Basis Set: (AUG-CC-PVTZ AUX)
    Blend: AUG-CC-PVTZ-JKFIT + DEF2-UNIVERSAL-JKFIT
  @DF-RHF Final Energy:  -542.08716352784211
    Total Energy =                       -542.0871635278421081
 Dipole X            :          7.5105225           -7.3727816            0.1377409
 Dipole Y            :        -21.6847126           22.7858546            1.1011421
 Dipole Z            :         22.9878771          -23.7689128           -0.7810358
 Magnitude           :                                                    1.3570200
  //            Monomer A HF           //
    Molecular point group: c1
  Multiplicity = 1
  Basis Set: AUG-CC-PVTZ
    Blend: AUG-CC-PVTZ
  Basis Set: (AUG-CC-PVTZ AUX)
    Blend: AUG-CC-PVTZ-JKFIT + DEF2-UNIVERSAL-JKFIT
  @DF-RHF Final Energy:  -161.67609099828849
    Total Energy =                       -161.6760909982884868
  //            Monomer B HF           //
    Molecular point group: c1

    Geometry (in Angstrom), charge = 0, multiplicity = 1:

       Center              X                  Y                   Z               Mass
    ------------   -----------------  -----------------  -----------------  -----------------
      Gh(NA)          0.000000000000     0.000000000000     0.000000000000    22.989769282000
         O            0.947812000000     1.899105000000     0.977031000000    15.994914619570
         H            1.807821000000     2.044401000000     0.657786000000     1.007825032230
         H            0.588989000000     2.792278000000     0.908818000000     1.007825032230
         O           -1.444642000000    -1.016969000000     1.456953000000    15.994914619570
         H           -1.254934000000    -1.253499000000     2.356975000000     1.007825032230
         H           -2.235372000000    -0.425228000000     1.524061000000     1.007825032230
         O            0.226467000000    -2.132852000000    -0.671381000000    15.994914619570
         H           -0.562565000000    -2.437496000000    -1.216545000000     1.007825032230
         H            0.659167000000    -2.880779000000    -0.216328000000     1.007825032230
         O           -1.530553000000     1.646078000000    -1.126636000000    15.994914619570
         H           -0.996697000000     2.420031000000    -1.296472000000     1.007825032230
         H           -2.107683000000     1.693328000000    -1.872568000000     1.007825032230
         O            1.383865000000     0.646444000000    -1.792448000000    15.994914619570
         H            1.257365000000     1.030067000000    -2.661942000000     1.007825032230
         H            2.278809000000     0.740204000000    -1.509904000000     1.007825032230

  Charge       = 0
  Multiplicity = 1
  Basis Set: AUG-CC-PVTZ
    Blend: AUG-CC-PVTZ
  Basis Set: (AUG-CC-PVTZ AUX)
    Blend: AUG-CC-PVTZ-JKFIT + DEF2-UNIVERSAL-JKFIT

    Orbital Energies [Eh]
    ---------------------

    Doubly Occupied:

       1A    -20.543974     2A    -20.539881     3A    -20.535334
       4A    -20.526854     5A    -20.520813     6A     -1.338289
       7A     -1.335800     8A     -1.325207     9A     -1.305877
      10A     -1.284098    11A     -0.708170    12A     -0.690527
      13A     -0.684555    14A     -0.668854    15A     -0.664021
      16A     -0.572158    17A     -0.565524    18A     -0.544743
      19A     -0.541767    20A     -0.512655    21A     -0.494392
      22A     -0.485552    23A     -0.471286    24A     -0.466264
      25A     -0.452804

  @DF-RHF Final Energy:  -380.26584951653325

   => Energetics <=

    Nuclear Repulsion Energy =            189.0160549493877511
    One-Electron Energy =                -903.0050008650040354
    Two-Electron Energy =                 333.7230963990830901
    Total Energy =                       -380.2658495165332511
 Dipole X            :          7.5566135           -7.3727816            0.1838319
 Dipole Y            :        -21.7845996           22.7858546            1.0012550
 Dipole Z            :         23.1233183          -23.7689128           -0.6455945
 Magnitude           :                                                    1.2054452

    SAPT Results
  --------------------------------------------------------------------------------------------------------
    Electrostatics               -137.88681210 [mEh]     -86.52528090 [kcal/mol]    -362.02177528 [kJ/mol]
      Elst10,r                   -146.84348006 [mEh]     -92.14567490 [kcal/mol]    -385.53750379 [kJ/mol]
      Elst12,r                      8.95666797 [mEh]       5.62039400 [kcal/mol]      23.51572851 [kJ/mol]

    Exchange                       39.72573957 [mEh]      24.92827793 [kcal/mol]     104.29991486 [kJ/mol]
      Exch10                       35.84559875 [mEh]      22.49345281 [kcal/mol]      94.11260656 [kJ/mol]
      Exch10(S^2)                  35.79776920 [mEh]      22.46343931 [kcal/mol]      93.98703008 [kJ/mol]
      Exch11(S^2)                  -0.77578542 [mEh]      -0.48681270 [kcal/mol]      -2.03682433 [kJ/mol]
      Exch12(S^2)                   4.65592623 [mEh]       2.92163782 [kcal/mol]      12.22413263 [kJ/mol]

    Induction                     -39.50188278 [mEh]     -24.78780567 [kcal/mol]    -103.71217894 [kJ/mol]
      Ind20,r                     -67.65549457 [mEh]     -42.45446380 [kcal/mol]    -177.62947653 [kJ/mol]
      Ind22                        -9.76015290 [mEh]      -6.12458841 [kcal/mol]     -25.62527790 [kJ/mol]
      Exch-Ind20,r                 31.07807547 [mEh]      19.50178678 [kcal/mol]      81.59547590 [kJ/mol]
      Exch-Ind22                    4.48340183 [mEh]       2.81337712 [kcal/mol]      11.77116989 [kJ/mol]
      delta HF,r (2)                2.35228739 [mEh]       1.47608262 [kcal/mol]       6.17592969 [kJ/mol]

    Dispersion                     -3.25503168 [mEh]      -2.04256322 [kcal/mol]      -8.54608451 [kJ/mol]
      Disp20                       -3.27441200 [mEh]      -2.05472455 [kcal/mol]      -8.59696753 [kJ/mol]
      Disp21                       -0.07480693 [mEh]      -0.04694206 [kcal/mol]      -0.19640558 [kJ/mol]
      Disp22 (SDQ)                 -0.20656401 [mEh]      -0.12962087 [kcal/mol]      -0.54233373 [kJ/mol]
      Disp22 (T)                   -0.27789953 [mEh]      -0.17438459 [kcal/mol]      -0.72962511 [kJ/mol]
      Est. Disp22 (T)              -0.32021922 [mEh]      -0.20094060 [kcal/mol]      -0.84073546 [kJ/mol]
      Exch-Disp20                   0.62097049 [mEh]       0.38966486 [kcal/mol]       1.63035779 [kJ/mol]

  Total HF                       -145.22301302 [mEh]     -91.12881648 [kcal/mol]    -381.28296816 [kJ/mol]
  Total SAPT0                    -147.87645454 [mEh]     -92.79387617 [kcal/mol]    -388.24957790 [kJ/mol]
  Total SAPT2                    -140.31639682 [mEh]     -88.04986833 [kcal/mol]    -368.40064910 [kJ/mol]
  Total SAPT2+                   -140.91798699 [mEh]     -88.42737186 [kcal/mol]    -369.98012386 [kJ/mol]

  Special recipe for scaled SAPT0 (see Manual):
    Electrostatics sSAPT0        -146.84348006 [mEh]     -92.14567490 [kcal/mol]    -385.53750379 [kJ/mol]
    Exchange sSAPT0                35.84559875 [mEh]      22.49345281 [kcal/mol]      94.11260656 [kJ/mol]
    Induction sSAPT0              -34.10039454 [mEh]     -21.39832063 [kcal/mol]     -89.53057353 [kJ/mol]
    Dispersion sSAPT0              -2.65094915 [mEh]      -1.66349570 [kcal/mol]      -6.96006602 [kJ/mol]
  Total sSAPT0                   -147.74922499 [mEh]     -92.71403843 [kcal/mol]    -387.91553677 [kJ/mol]
  --------------------------------------------------------------------------------------------------------

*** Psi4 exiting successfully. Buy a developer a beer!
