                               Psi4 1.9 release

  ==> Input File <==

--------------------------------------------------------------------------
MEMORY 60 GB

molecule dimer {
1 1
Na     0.000000     0.000000     0.000000
--
0 1
O      1.661844     0.842701    -1.497041
H      2.528080     0.377121    -1.307093
H      1.848781     1.779490    -1.584275
O     -0.087779     2.077226     1.056665
H      0.723586     2.252445     1.568366
H     -0.229253     2.684807     0.350873
O     -0.986073    -2.138878    -0.877046
H     -0.792585    -1.599887    -1.687093
H     -0.537496    -2.949143    -1.090109
O     -1.993529     0.705204    -1.045757
H     -2.712929     0.142744    -1.464515
H     -2.466013     1.376847    -0.624703
O      2.026165    -1.165386     0.465272
H      2.085392    -1.934949     1.021382
H      2.008320    -1.517727    -0.446427

units ang
no_reorient
no_com
symmetry c1
}

set {
basis        aug-cc-pVTZ
scf_type     df
}

energy("sapt2+")
--------------------------------------------------------------------------

  //              Dimer HF             //
    Molecular point group: c1
  Charge       = 1
  Multiplicity = 1
  Basis Set: AUG-CC-PVTZ
    Blend: AUG-CC-PVTZ
  Basis Set: (AUG-CC-PVTZ AUX)
    Blend: AUG-CC-PVTZ-JKFIT + DEF2-UNIVERSAL-JKFIT
  @DF-RHF Final Energy:  -542.07544136883155
    Total Energy =                       -542.0754413688314344
 Dipole X            :        -13.1777833           14.0234818            0.8456986
 Dipole Y            :         -5.9679475            6.0068422            0.0388947
 Dipole Z            :         37.6199341          -38.6389466           -1.0190125
 Magnitude           :                                                    1.3248039
  //            Monomer A HF           //
    Molecular point group: c1
  Multiplicity = 1
  Basis Set: AUG-CC-PVTZ
    Blend: AUG-CC-PVTZ
  Basis Set: (AUG-CC-PVTZ AUX)
    Blend: AUG-CC-PVTZ-JKFIT + DEF2-UNIVERSAL-JKFIT
  @DF-RHF Final Energy:  -161.67609198567618
    Total Energy =                       -161.6760919856761802
  //            Monomer B HF           //
    Molecular point group: c1

    Geometry (in Angstrom), charge = 0, multiplicity = 1:

       Center              X                  Y                   Z               Mass
    ------------   -----------------  -----------------  -----------------  -----------------
      Gh(NA)          0.000000000000     0.000000000000     0.000000000000    22.989769282000
         O            1.661844000000     0.842701000000    -1.497041000000    15.994914619570
         H            2.528080000000     0.377121000000    -1.307093000000     1.007825032230
         H            1.848781000000     1.779490000000    -1.584275000000     1.007825032230
         O           -0.087779000000     2.077226000000     1.056665000000    15.994914619570
         H            0.723586000000     2.252445000000     1.568366000000     1.007825032230
         H           -0.229253000000     2.684807000000     0.350873000000     1.007825032230
         O           -0.986073000000    -2.138878000000    -0.877046000000    15.994914619570
         H           -0.792585000000    -1.599887000000    -1.687093000000     1.007825032230
         H           -0.537496000000    -2.949143000000    -1.090109000000     1.007825032230
         O           -1.993529000000     0.705204000000    -1.045757000000    15.994914619570
         H           -2.712929000000     0.142744000000    -1.464515000000     1.007825032230
         H           -2.466013000000     1.376847000000    -0.624703000000     1.007825032230
         O            2.026165000000    -1.165386000000     0.465272000000    15.994914619570
         H            2.085392000000    -1.934949000000     1.021382000000     1.007825032230
         H            2.008320000000    -1.517727000000    -0.446427000000     1.007825032230

  Charge       = 0
  Multiplicity = 1
  Basis Set: AUG-CC-PVTZ
    Blend: AUG-CC-PVTZ
  Basis Set: (AUG-CC-PVTZ AUX)
    Blend: AUG-CC-PVTZ-JKFIT + DEF2-UNIVERSAL-JKFIT

    Orbital Energies [Eh]
    ---------------------

    Doubly Occupied:

       1A    -20.552287     2A    -20.549144     3A    -20.549128
       4A    -20.542970     5A    -20.534830     6A     -1.336133
       7A     -1.329905     8A     -1.326344     9A     -1.320730
      10A     -1.318601    11A     -0.712998    12A     -0.707667
      13A     -0.693586    14A     -0.681241    15A     -0.675839
      16A     -0.569040    17A     -0.566617    18A     -0.561941
      19A     -0.553146    20A     -0.537820    21A     -0.498755
      22A     -0.490756    23A     -0.484220    24A     -0.483308
      25A     -0.473822

  @DF-RHF Final Energy:  -380.27497482424479

   => Energetics <=

    Nuclear Repulsion Energy =            189.4232620035898833
    One-Electron Energy =                -903.2948099685631860
    Two-Electron Energy =                 333.5965731407284807
    Total Energy =                       -380.2749748242447936
 Dipole X            :        -13.2811030           14.0234818            0.7423788
 Dipole Y            :         -6.0078267            6.0068422           -0.0009845
 Dipole Z            :         37.8345983          -38.6389466           -0.8043484
 Magnitude           :                                                    1.0945792

    SAPT Results
  --------------------------------------------------------------------------------------------------------
    Electrostatics               -116.83910330 [mEh]     -73.31764423 [kcal/mol]    -306.76102345 [kJ/mol]
      Elst10,r                   -122.83277446 [mEh]     -77.07872966 [kcal/mol]    -322.49740490 [kJ/mol]
      Elst12,r                      5.99367116 [mEh]       3.76108543 [kcal/mol]      15.73638146 [kJ/mol]

    Exchange                       35.22748742 [mEh]      22.10558209 [kcal/mol]      92.48975547 [kJ/mol]
      Exch10                       31.17380000 [mEh]      19.56185483 [kcal/mol]      81.84680063 [kJ/mol]
      Exch10(S^2)                  31.13870013 [mEh]      19.53982934 [kcal/mol]      81.75464594 [kJ/mol]
      Exch11(S^2)                  -0.67890473 [mEh]      -0.42601915 [kcal/mol]      -1.78246412 [kJ/mol]
      Exch12(S^2)                   4.73259215 [mEh]       2.96974641 [kcal/mol]      12.42541897 [kJ/mol]

    Induction                     -38.15196425 [mEh]     -23.94071901 [kcal/mol]    -100.16796835 [kJ/mol]
      Ind20,r                     -63.07253116 [mEh]     -39.57861084 [kcal/mol]    -165.59690774 [kJ/mol]
      Ind22                        -9.84731213 [mEh]      -6.17928165 [kcal/mol]     -25.85411443 [kJ/mol]
      Exch-Ind20,r                 28.25224419 [mEh]      17.72855089 [kcal/mol]      74.17625691 [kJ/mol]
      Exch-Ind22                    4.41093233 [mEh]       2.76790183 [kcal/mol]      11.58090124 [kJ/mol]
      delta HF,r (2)                2.10470251 [mEh]       1.32072076 [kcal/mol]       5.52589567 [kJ/mol]

    Dispersion                     -3.08595171 [mEh]      -1.93646393 [kcal/mol]      -8.10216510 [kJ/mol]
      Disp20                       -3.03364145 [mEh]      -1.90363875 [kcal/mol]      -7.96482452 [kJ/mol]
      Disp21                       -0.09299370 [mEh]      -0.05835443 [kcal/mol]      -0.24415493 [kJ/mol]
      Disp22 (SDQ)                 -0.19559215 [mEh]      -0.12273593 [kcal/mol]      -0.51352712 [kJ/mol]
      Disp22 (T)                   -0.26199145 [mEh]      -0.16440212 [kcal/mol]      -0.68785847 [kJ/mol]
      Est. Disp22 (T)              -0.29910535 [mEh]      -0.18769144 [kcal/mol]      -0.78530100 [kJ/mol]
      Exch-Disp20                   0.53538094 [mEh]       0.33595661 [kcal/mol]       1.40564246 [kJ/mol]

  Total HF                       -124.37455891 [mEh]     -78.04621401 [kcal/mol]    -326.54535943 [kJ/mol]
  Total SAPT0                    -126.87281942 [mEh]     -79.61389615 [kcal/mol]    -333.10454149 [kJ/mol]
  Total SAPT2                    -122.26184064 [mEh]     -76.72046328 [kcal/mol]    -320.99841838 [kJ/mol]
  Total SAPT2+                   -122.84953184 [mEh]     -77.08924508 [kcal/mol]    -322.54140142 [kJ/mol]

  Special recipe for scaled SAPT0 (see Manual):
    Electrostatics sSAPT0        -122.83277446 [mEh]     -77.07872966 [kcal/mol]    -322.49740490 [kJ/mol]
    Exchange sSAPT0                31.17380000 [mEh]      19.56185483 [kcal/mol]      81.84680063 [kJ/mol]
    Induction sSAPT0              -32.61993805 [mEh]     -20.46932016 [kcal/mol]     -85.64363556 [kJ/mol]
    Dispersion sSAPT0              -2.49644800 [mEh]      -1.56654477 [kcal/mol]      -6.55442333 [kJ/mol]
  Total sSAPT0                   -126.77536051 [mEh]     -79.55273976 [kcal/mol]    -332.84866317 [kJ/mol]
  --------------------------------------------------------------------------------------------------------

*** Psi4 exiting successfully. Buy a developer a beer!
