                               Psi4 1.9 release

  ==> Input File <==

--------------------------------------------------------------------------
MEMORY 60 GB

molecule dimer {
1 1
Na     0.000000     0.000000     0.000000
--
0 1
O      1.840093    -0.013228     1.168474
H      2.578854    -0.628590     1.402113
H      1.971143     0.638358     1.806956
O     -0.529791    -1.975169    -1.169996
H     -0.194422    -2.273058    -1.972985
H     -1.435025    -2.192187    -1.229504
O      0.234253     1.720156    -1.715639
H      0.688439     2.544420    -1.572514
H     -0.667981     1.888890    -2.029084
O     -2.243886     0.693704     0.273219
H     -3.037219     0.241933     0.599418
H     -2.426716     1.627144     0.193199

units ang
no_reorient
no_com
symmetry c1
}

set {
basis        aug-cc-pVTZ
scf_type     df
}

energy("sapt2+")
--------------------------------------------------------------------------

  //              Dimer HF             //
    Molecular point group: c1
  Charge       = 1
  Multiplicity = 1
  Basis Set: AUG-CC-PVTZ
    Blend: AUG-CC-PVTZ
  Basis Set: (AUG-CC-PVTZ AUX)
    Blend: AUG-CC-PVTZ-JKFIT + DEF2-UNIVERSAL-JKFIT
  @DF-RHF Final Energy:  -466.02787203692884
    Total Energy =                       -466.0278720369288408
 Dipole X            :         14.5345702          -15.3399936           -0.8054234
 Dipole Y            :         -9.2180321            9.9222225            0.7041903
 Dipole Z            :         27.0755771          -27.1250098           -0.0494327
 Magnitude           :                                                    1.0709969
  //            Monomer A HF           //
    Molecular point group: c1
  Multiplicity = 1
  Basis Set: AUG-CC-PVTZ
    Blend: AUG-CC-PVTZ
  Basis Set: (AUG-CC-PVTZ AUX)
    Blend: AUG-CC-PVTZ-JKFIT + DEF2-UNIVERSAL-JKFIT
  @DF-RHF Final Energy:  -161.67608620462255
    Total Energy =                       -161.6760862046225498
  //            Monomer B HF           //
    Molecular point group: c1

    Geometry (in Angstrom), charge = 0, multiplicity = 1:

       Center              X                  Y                   Z               Mass
    ------------   -----------------  -----------------  -----------------  -----------------
      Gh(NA)          0.000000000000     0.000000000000     0.000000000000    22.989769282000
         O            1.840093000000    -0.013228000000     1.168474000000    15.994914619570
         H            2.578854000000    -0.628590000000     1.402113000000     1.007825032230
         H            1.971143000000     0.638358000000     1.806956000000     1.007825032230
         O           -0.529791000000    -1.975169000000    -1.169996000000    15.994914619570
         H           -0.194422000000    -2.273058000000    -1.972985000000     1.007825032230
         H           -1.435025000000    -2.192187000000    -1.229504000000     1.007825032230
         O            0.234253000000     1.720156000000    -1.715639000000    15.994914619570
         H            0.688439000000     2.544420000000    -1.572514000000     1.007825032230
         H           -0.667981000000     1.888890000000    -2.029084000000     1.007825032230
         O           -2.243886000000     0.693704000000     0.273219000000    15.994914619570
         H           -3.037219000000     0.241933000000     0.599418000000     1.007825032230
         H           -2.426716000000     1.627144000000     0.193199000000     1.007825032230

  Charge       = 0
  Multiplicity = 1
  Basis Set: AUG-CC-PVTZ
    Blend: AUG-CC-PVTZ
  Basis Set: (AUG-CC-PVTZ AUX)
    Blend: AUG-CC-PVTZ-JKFIT + DEF2-UNIVERSAL-JKFIT

    Orbital Energies [Eh]
    ---------------------

    Doubly Occupied:

       1A    -20.551618     2A    -20.540353     3A    -20.539319
       4A    -20.530607     5A     -1.340102     6A     -1.333737
       7A     -1.330636     8A     -1.321831     9A     -0.710506
      10A     -0.700346    11A     -0.699238    12A     -0.681233
      13A     -0.565246    14A     -0.559996    15A     -0.556472
      16A     -0.544830    17A     -0.494277    18A     -0.483068
      19A     -0.480900    20A     -0.480625

  @DF-RHF Final Energy:  -304.22494317299208

   => Energetics <=

    Nuclear Repulsion Energy =            118.8514170575462146
    One-Electron Energy =                -657.2628309413451007
    Two-Electron Energy =                 234.1864707108068160
    Total Energy =                       -304.2249431729920843
 Dipole X            :         14.6058862          -15.3399936           -0.7341074
 Dipole Y            :         -9.2742053            9.9222225            0.6480171
 Dipole Z            :         27.1986785          -27.1250098            0.0736687
 Magnitude           :                                                    0.9819709

    SAPT Results
  --------------------------------------------------------------------------------------------------------
    Electrostatics               -121.71768448 [mEh]     -76.37900014 [kcal/mol]    -319.56973658 [kJ/mol]
      Elst10,r                   -129.26775290 [mEh]     -81.11673960 [kcal/mol]    -339.39243849 [kJ/mol]
      Elst12,r                      7.55006842 [mEh]       4.73773946 [kcal/mol]      19.82270191 [kJ/mol]

    Exchange                       34.62386063 [mEh]      21.72680057 [kcal/mol]      90.90493357 [kJ/mol]
      Exch10                       31.50040099 [mEh]      19.76680005 [kcal/mol]      82.70429139 [kJ/mol]
      Exch10(S^2)                  31.46254978 [mEh]      19.74304806 [kcal/mol]      82.60491307 [kJ/mol]
      Exch11(S^2)                  -0.56006350 [mEh]      -0.35144515 [kcal/mol]      -1.47044653 [kJ/mol]
      Exch12(S^2)                   3.68352315 [mEh]       2.31144568 [kcal/mol]       9.67108871 [kJ/mol]

    Induction                     -33.21562044 [mEh]     -20.84311651 [kcal/mol]     -87.20759946 [kJ/mol]
      Ind20,r                     -58.88643492 [mEh]     -36.95179579 [kcal/mol]    -154.60631358 [kJ/mol]
      Ind22                        -7.75439807 [mEh]      -4.86595825 [kcal/mol]     -20.35916933 [kJ/mol]
      Exch-Ind20,r                 27.44514540 [mEh]      17.22208875 [kcal/mol]      72.05721931 [kJ/mol]
      Exch-Ind22                    3.61408502 [mEh]       2.26787259 [kcal/mol]       9.48877892 [kJ/mol]
      delta HF,r (2)                2.36598213 [mEh]       1.48467620 [kcal/mol]       6.21188522 [kJ/mol]

    Dispersion                     -2.57775504 [mEh]      -1.61756571 [kcal/mol]      -6.76789494 [kJ/mol]
      Disp20                       -2.59282550 [mEh]      -1.62702256 [kcal/mol]      -6.80746241 [kJ/mol]
      Disp21                       -0.08321427 [mEh]      -0.05221775 [kcal/mol]      -0.21847905 [kJ/mol]
      Disp22 (SDQ)                 -0.15310628 [mEh]      -0.09607564 [kcal/mol]      -0.40198049 [kJ/mol]
      Disp22 (T)                   -0.20849549 [mEh]      -0.13083290 [kcal/mol]      -0.54740484 [kJ/mol]
      Est. Disp22 (T)              -0.24344679 [mEh]      -0.15276517 [kcal/mol]      -0.63916947 [kJ/mol]
      Exch-Disp20                   0.49483780 [mEh]       0.31051541 [kcal/mol]       1.29919647 [kJ/mol]

  Total HF                       -126.84265931 [mEh]     -79.59497040 [kcal/mol]    -333.02535615 [kJ/mol]
  Total SAPT0                    -128.94064701 [mEh]     -80.91147755 [kcal/mol]    -338.53362209 [kJ/mol]
  Total SAPT2                    -122.40743199 [mEh]     -76.81182323 [kcal/mol]    -321.38066841 [kJ/mol]
  Total SAPT2+                   -122.88719934 [mEh]     -77.11288179 [kcal/mol]    -322.64029741 [kJ/mol]

  Special recipe for scaled SAPT0 (see Manual):
    Electrostatics sSAPT0        -129.26775290 [mEh]     -81.11673960 [kcal/mol]    -339.39243849 [kJ/mol]
    Exchange sSAPT0                31.50040099 [mEh]      19.76680005 [kcal/mol]      82.70429139 [kJ/mol]
    Induction sSAPT0              -28.97613405 [mEh]     -18.18279863 [kcal/mol]     -76.07682947 [kJ/mol]
    Dispersion sSAPT0              -2.09619959 [mEh]      -1.31538510 [kcal/mol]      -5.50357128 [kJ/mol]
  Total sSAPT0                   -128.83968556 [mEh]     -80.84812329 [kcal/mol]    -338.26854784 [kJ/mol]
  --------------------------------------------------------------------------------------------------------

*** Psi4 exiting successfully. Buy a developer a beer!
