                               Psi4 1.9 release

  ==> Input File <==

--------------------------------------------------------------------------
MEMORY 60 GB

molecule dimer {
1 1
Na     0.000000     0.000000     0.000000
--
0 1
O     -1.365784     1.888773     0.128336
H     -1.127056     2.523638    -0.548341
H     -2.084338     1.268663    -0.087383
O      1.933277     1.190155     1.145330
H      2.694356     1.300756     0.519806
H      1.814910     2.060976     1.520495
O     -0.418772    -0.363065    -2.238699
H     -1.093240     0.117831    -2.640346
H      0.385868    -0.155367    -2.718085
O     -1.360209    -0.721731     1.772667
H     -0.830785    -1.124783     2.509665
H     -1.649374     0.155797     2.059176
O      1.649637    -1.718358    -0.019721
H      1.060619    -2.517490    -0.072430
H      2.004692    -1.689554    -0.966746

units ang
no_reorient
no_com
symmetry c1
}

set {
basis        aug-cc-pVTZ
scf_type     df
}

energy("sapt2+")
--------------------------------------------------------------------------

  //              Dimer HF             //
    Molecular point group: c1
  Charge       = 1
  Multiplicity = 1
  Basis Set: AUG-CC-PVTZ
    Blend: AUG-CC-PVTZ
  Basis Set: (AUG-CC-PVTZ AUX)
    Blend: AUG-CC-PVTZ-JKFIT + DEF2-UNIVERSAL-JKFIT
  @DF-RHF Final Energy:  -542.07110008261407
    Total Energy =                       -542.0711000826140662
 Dipole X            :         -8.6297899            8.8455132            0.2157233
 Dipole Y            :         -6.8665704            7.8360498            0.9694794
 Dipole Z            :        -12.3851375           11.1099172           -1.2752202
 Magnitude           :                                                    1.6163581
  //            Monomer A HF           //
    Molecular point group: c1
  Multiplicity = 1
  Basis Set: AUG-CC-PVTZ
    Blend: AUG-CC-PVTZ
  Basis Set: (AUG-CC-PVTZ AUX)
    Blend: AUG-CC-PVTZ-JKFIT + DEF2-UNIVERSAL-JKFIT
  @DF-RHF Final Energy:  -161.67609279413790
    Total Energy =                       -161.6760927941379009
  //            Monomer B HF           //
    Molecular point group: c1

    Geometry (in Angstrom), charge = 0, multiplicity = 1:

       Center              X                  Y                   Z               Mass
    ------------   -----------------  -----------------  -----------------  -----------------
      Gh(NA)          0.000000000000     0.000000000000     0.000000000000    22.989769282000
         O           -1.365784000000     1.888773000000     0.128336000000    15.994914619570
         H           -1.127056000000     2.523638000000    -0.548341000000     1.007825032230
         H           -2.084338000000     1.268663000000    -0.087383000000     1.007825032230
         O            1.933277000000     1.190155000000     1.145330000000    15.994914619570
         H            2.694356000000     1.300756000000     0.519806000000     1.007825032230
         H            1.814910000000     2.060976000000     1.520495000000     1.007825032230
         O           -0.418772000000    -0.363065000000    -2.238699000000    15.994914619570
         H           -1.093240000000     0.117831000000    -2.640346000000     1.007825032230
         H            0.385868000000    -0.155367000000    -2.718085000000     1.007825032230
         O           -1.360209000000    -0.721731000000     1.772667000000    15.994914619570
         H           -0.830785000000    -1.124783000000     2.509665000000     1.007825032230
         H           -1.649374000000     0.155797000000     2.059176000000     1.007825032230
         O            1.649637000000    -1.718358000000    -0.019721000000    15.994914619570
         H            1.060619000000    -2.517490000000    -0.072430000000     1.007825032230
         H            2.004692000000    -1.689554000000    -0.966746000000     1.007825032230

  Charge       = 0
  Multiplicity = 1
  Basis Set: AUG-CC-PVTZ
    Blend: AUG-CC-PVTZ
  Basis Set: (AUG-CC-PVTZ AUX)
    Blend: AUG-CC-PVTZ-JKFIT + DEF2-UNIVERSAL-JKFIT

    Orbital Energies [Eh]
    ---------------------

    Doubly Occupied:

       1A    -20.555174     2A    -20.545519     3A    -20.544708
       4A    -20.541015     5A    -20.535316     6A     -1.354341
       7A     -1.325108     8A     -1.316785     9A     -1.306413
      10A     -1.302113    11A     -0.725000    12A     -0.720158
      13A     -0.679170    14A     -0.677953    15A     -0.654953
      16A     -0.575740    17A     -0.558102    18A     -0.546102
      19A     -0.543419    20A     -0.540811    21A     -0.506128
      22A     -0.487615    23A     -0.478774    24A     -0.475292
      25A     -0.470614

  @DF-RHF Final Energy:  -380.27286607833963

   => Energetics <=

    Nuclear Repulsion Energy =            186.1168538936296670
    One-Electron Energy =                -896.8467876833686887
    Two-Electron Energy =                 330.4570677113993611
    Total Energy =                       -380.2728660783396322
 Dipole X            :         -8.6735278            8.8455132            0.1719854
 Dipole Y            :         -6.9248616            7.8360498            0.9111882
 Dipole Z            :        -12.3971056           11.1099172           -1.2871884
 Magnitude           :                                                    1.5864101

    SAPT Results
  --------------------------------------------------------------------------------------------------------
    Electrostatics               -121.40851751 [mEh]     -76.18499493 [kcal/mol]    -318.75801880 [kJ/mol]
      Elst10,r                   -125.61711421 [mEh]     -78.82592924 [kcal/mol]    -329.80768792 [kJ/mol]
      Elst12,r                      4.20859670 [mEh]       2.64093430 [kcal/mol]      11.04966912 [kJ/mol]

    Exchange                       41.85532441 [mEh]      26.26461260 [kcal/mol]     109.89113910 [kJ/mol]
      Exch10                       36.83785101 [mEh]      23.11610050 [kcal/mol]      96.71776449 [kJ/mol]
      Exch10(S^2)                  36.79299407 [mEh]      23.08795235 [kcal/mol]      96.59999264 [kJ/mol]
      Exch11(S^2)                  -0.83025853 [mEh]      -0.52099509 [kcal/mol]      -2.17984346 [kJ/mol]
      Exch12(S^2)                   5.84773193 [mEh]       3.66950719 [kcal/mol]      15.35321807 [kJ/mol]

    Induction                     -39.31947626 [mEh]     -24.67334386 [kcal/mol]    -103.23327071 [kJ/mol]
      Ind20,r                     -70.21444835 [mEh]     -44.06023153 [kcal/mol]    -184.34800873 [kJ/mol]
      Ind22                       -11.66160581 [mEh]      -7.31776812 [kcal/mol]     -30.61754182 [kJ/mol]
      Exch-Ind20,r                 34.34420522 [mEh]      21.55131414 [kcal/mol]      90.17069837 [kJ/mol]
      Exch-Ind22                    5.70407647 [mEh]       3.57936203 [kcal/mol]      14.97605072 [kJ/mol]
      delta HF,r (2)                2.50829620 [mEh]       1.57397963 [kcal/mol]       6.58553076 [kJ/mol]

    Dispersion                     -3.27612755 [mEh]      -2.05580108 [kcal/mol]      -8.60147170 [kJ/mol]
      Disp20                       -3.25840829 [mEh]      -2.04468207 [kcal/mol]      -8.55494978 [kJ/mol]
      Disp21                       -0.11321252 [mEh]      -0.07104193 [kcal/mol]      -0.29723944 [kJ/mol]
      Disp22 (SDQ)                 -0.21641749 [mEh]      -0.13580403 [kcal/mol]      -0.56820405 [kJ/mol]
      Disp22 (T)                   -0.28493185 [mEh]      -0.17879744 [kcal/mol]      -0.74808848 [kJ/mol]
      Est. Disp22 (T)              -0.32471261 [mEh]      -0.20376024 [kcal/mol]      -0.85253284 [kJ/mol]
      Exch-Disp20                   0.63662336 [mEh]       0.39948719 [kcal/mol]       1.67145441 [kJ/mol]

  Total HF                       -122.14121014 [mEh]     -76.64476650 [kcal/mol]    -320.68170303 [kJ/mol]
  Total SAPT0                    -124.76299506 [mEh]     -78.28996138 [kcal/mol]    -327.56519840 [kJ/mol]
  Total SAPT2                    -121.49445429 [mEh]     -76.23892108 [kcal/mol]    -318.98364578 [kJ/mol]
  Total SAPT2+                   -122.14879691 [mEh]     -76.64952727 [kcal/mol]    -320.70162211 [kJ/mol]

  Special recipe for scaled SAPT0 (see Manual):
    Electrostatics sSAPT0        -125.61711421 [mEh]     -78.82592924 [kcal/mol]    -329.80768792 [kJ/mol]
    Exchange sSAPT0                36.83785101 [mEh]      23.11610050 [kcal/mol]      96.71776449 [kJ/mol]
    Induction sSAPT0              -33.23617940 [mEh]     -20.85601745 [kcal/mol]     -87.26157701 [kJ/mol]
    Dispersion sSAPT0              -2.61945363 [mEh]      -1.64373197 [kcal/mol]      -6.87737455 [kJ/mol]
  Total sSAPT0                   -124.63489624 [mEh]     -78.20957815 [kcal/mol]    -327.22887499 [kJ/mol]
  --------------------------------------------------------------------------------------------------------

*** Psi4 exiting successfully. Buy a developer a beer!
