                               Psi4 1.9 release

  ==> Input File <==

--------------------------------------------------------------------------
MEMORY 60 GB

molecule dimer {
1 1
Na     0.000000     0.000000     0.000000
--
0 1
O      1.692917     1.592615     0.480622
H      2.586663     1.486171     0.100037
H      1.727856     2.356221     1.061969
O     -1.389429    -1.947879    -0.873259
H     -0.995256    -2.536833    -1.500073
H     -2.243648    -1.766646    -1.123488
O      2.076813    -1.377446     0.020620
H      2.625603    -2.126282    -0.266841
H      2.516735    -1.045054     0.792393
O     -0.594482     1.641239    -1.699071
H      0.125257     2.036144    -2.302619
H     -1.490431     1.945166    -1.907436
O     -1.394789     1.438669     1.679367
H     -2.318786     1.491294     1.965205
H     -1.357392     2.233936     1.154702

units ang
no_reorient
no_com
symmetry c1
}

set {
basis        aug-cc-pVTZ
scf_type     df
}

energy("sapt2+")
--------------------------------------------------------------------------

  //              Dimer HF             //
    Molecular point group: c1
  Charge       = 1
  Multiplicity = 1
  Basis Set: AUG-CC-PVTZ
    Blend: AUG-CC-PVTZ
  Basis Set: (AUG-CC-PVTZ AUX)
    Blend: AUG-CC-PVTZ-JKFIT + DEF2-UNIVERSAL-JKFIT
  @DF-RHF Final Energy:  -542.09301635255508
    Total Energy =                       -542.0930163525550824
 Dipole X            :         -7.8006902            8.1349705            0.3342803
 Dipole Y            :        -27.0337663           28.0656474            1.0318810
 Dipole Z            :          8.8358792           -9.7508337           -0.9149546
 Magnitude           :                                                    1.4190362
  //            Monomer A HF           //
    Molecular point group: c1
  Multiplicity = 1
  Basis Set: AUG-CC-PVTZ
    Blend: AUG-CC-PVTZ
  Basis Set: (AUG-CC-PVTZ AUX)
    Blend: AUG-CC-PVTZ-JKFIT + DEF2-UNIVERSAL-JKFIT
  @DF-RHF Final Energy:  -161.67608726499844
    Total Energy =                       -161.6760872649984719
  //            Monomer B HF           //
    Molecular point group: c1

    Geometry (in Angstrom), charge = 0, multiplicity = 1:

       Center              X                  Y                   Z               Mass
    ------------   -----------------  -----------------  -----------------  -----------------
      Gh(NA)          0.000000000000     0.000000000000     0.000000000000    22.989769282000
         O            1.692917000000     1.592615000000     0.480622000000    15.994914619570
         H            2.586663000000     1.486171000000     0.100037000000     1.007825032230
         H            1.727856000000     2.356221000000     1.061969000000     1.007825032230
         O           -1.389429000000    -1.947879000000    -0.873259000000    15.994914619570
         H           -0.995256000000    -2.536833000000    -1.500073000000     1.007825032230
         H           -2.243648000000    -1.766646000000    -1.123488000000     1.007825032230
         O            2.076813000000    -1.377446000000     0.020620000000    15.994914619570
         H            2.625603000000    -2.126282000000    -0.266841000000     1.007825032230
         H            2.516735000000    -1.045054000000     0.792393000000     1.007825032230
         O           -0.594482000000     1.641239000000    -1.699071000000    15.994914619570
         H            0.125257000000     2.036144000000    -2.302619000000     1.007825032230
         H           -1.490431000000     1.945166000000    -1.907436000000     1.007825032230
         O           -1.394789000000     1.438669000000     1.679367000000    15.994914619570
         H           -2.318786000000     1.491294000000     1.965205000000     1.007825032230
         H           -1.357392000000     2.233936000000     1.154702000000     1.007825032230

  Charge       = 0
  Multiplicity = 1
  Basis Set: AUG-CC-PVTZ
    Blend: AUG-CC-PVTZ
  Basis Set: (AUG-CC-PVTZ AUX)
    Blend: AUG-CC-PVTZ-JKFIT + DEF2-UNIVERSAL-JKFIT

    Orbital Energies [Eh]
    ---------------------

    Doubly Occupied:

       1A    -20.543770     2A    -20.541588     3A    -20.539296
       4A    -20.539216     5A    -20.524744     6A     -1.331606
       7A     -1.324929     8A     -1.324281     9A     -1.319221
      10A     -1.305016    11A     -0.710107    12A     -0.694211
      13A     -0.689282    14A     -0.683342    15A     -0.672657
      16A     -0.563706    17A     -0.556270    18A     -0.546891
      19A     -0.543018    20A     -0.530272    21A     -0.486735
      22A     -0.481255    23A     -0.479385    24A     -0.476724
      25A     -0.472926

  @DF-RHF Final Energy:  -380.27417067846602

   => Energetics <=

    Nuclear Repulsion Energy =            181.0424032565534560
    One-Electron Energy =                -886.8722449695468413
    Two-Electron Energy =                 325.5556710345273359
    Total Energy =                       -380.2741706784660209
 Dipole X            :         -7.8876037            8.1349705            0.2473668
 Dipole Y            :        -27.2172788           28.0656474            0.8483686
 Dipole Z            :          8.9355839           -9.7508337           -0.8152498
 Magnitude           :                                                    1.2023110

    SAPT Results
  --------------------------------------------------------------------------------------------------------
    Electrostatics               -122.62228029 [mEh]     -76.94664258 [kcal/mol]    -321.94475254 [kJ/mol]
      Elst10,r                   -131.37537792 [mEh]     -82.43929426 [kcal/mol]    -344.92600720 [kJ/mol]
      Elst12,r                      8.75309763 [mEh]       5.49265169 [kcal/mol]      22.98125466 [kJ/mol]

    Exchange                       20.95819715 [mEh]      13.15146726 [kcal/mol]      55.02573903 [kJ/mol]
      Exch10                       18.60596580 [mEh]      11.67541981 [kcal/mol]      48.84995648 [kJ/mol]
      Exch10(S^2)                  18.59318434 [mEh]      11.66739932 [kcal/mol]      48.81639876 [kJ/mol]
      Exch11(S^2)                  -0.35555893 [mEh]      -0.22311660 [kcal/mol]      -0.93351985 [kJ/mol]
      Exch12(S^2)                   2.70779028 [mEh]       1.69916405 [kcal/mol]       7.10930240 [kJ/mol]

    Induction                     -34.34519653 [mEh]     -21.55193620 [kcal/mol]     -90.17330107 [kJ/mol]
      Ind20,r                     -47.69133621 [mEh]     -29.92676529 [kcal/mol]    -125.21358598 [kJ/mol]
      Ind22                        -6.63519251 [mEh]      -4.16364616 [kcal/mol]     -17.42069553 [kJ/mol]
      Exch-Ind20,r                 16.38056756 [mEh]      10.27896133 [kcal/mol]      43.00717420 [kJ/mol]
      Exch-Ind22                    2.27899295 [mEh]       1.43008967 [kcal/mol]       5.98349517 [kJ/mol]
      delta HF,r (2)                1.32177168 [mEh]       0.82942425 [kcal/mol]       3.47031106 [kJ/mol]

    Dispersion                     -2.31586538 [mEh]      -1.45322747 [kcal/mol]      -6.08030373 [kJ/mol]
      Disp20                       -2.19821870 [mEh]      -1.37940306 [kcal/mol]      -5.77142240 [kJ/mol]
      Disp21                       -0.07011749 [mEh]      -0.04399939 [kcal/mol]      -0.18409344 [kJ/mol]
      Disp22 (SDQ)                 -0.13669534 [mEh]      -0.08577762 [kcal/mol]      -0.35889358 [kJ/mol]
      Disp22 (T)                   -0.18848163 [mEh]      -0.11827401 [kcal/mol]      -0.49485846 [kJ/mol]
      Est. Disp22 (T)              -0.21419766 [mEh]      -0.13441106 [kcal/mol]      -0.56237588 [kJ/mol]
      Exch-Disp20                   0.30336381 [mEh]       0.19036367 [kcal/mol]       0.79648157 [kJ/mol]

  Total HF                       -142.75840909 [mEh]     -89.58225417 [kcal/mol]    -374.81215143 [kJ/mol]
  Total SAPT0                    -144.65326398 [mEh]     -90.77129356 [kcal/mol]    -379.78709226 [kJ/mol]
  Total SAPT2                    -137.90413456 [mEh]     -86.53615091 [kcal/mol]    -362.06725540 [kJ/mol]
  Total SAPT2+                   -138.32514505 [mEh]     -86.80033898 [kcal/mol]    -363.17261830 [kJ/mol]

  Special recipe for scaled SAPT0 (see Manual):
    Electrostatics sSAPT0        -131.37537792 [mEh]     -82.43929426 [kcal/mol]    -344.92600720 [kJ/mol]
    Exchange sSAPT0                18.60596580 [mEh]      11.67541981 [kcal/mol]      48.84995648 [kJ/mol]
    Induction sSAPT0              -29.95519240 [mEh]     -18.79716702 [kcal/mol]     -78.64734682 [kJ/mol]
    Dispersion sSAPT0              -1.89422884 [mEh]      -1.18864654 [kcal/mol]      -4.97329713 [kJ/mol]
  Total sSAPT0                   -144.61883335 [mEh]     -90.74968802 [kcal/mol]    -379.69669466 [kJ/mol]
  --------------------------------------------------------------------------------------------------------

*** Psi4 exiting successfully. Buy a developer a beer!
