                               Psi4 1.9 release

  ==> Input File <==

--------------------------------------------------------------------------
MEMORY 60 GB

molecule dimer {
1 1
Na     0.000000     0.000000     0.000000
--
0 1
O     -1.748724     1.414062     0.874886
H     -1.689945     2.308594     0.549541
H     -2.361366     1.350837     1.632814
O      0.302414     0.965556    -2.034213
H     -0.601270     1.062348    -2.426937
H      0.779372     0.758555    -2.825749
O      1.437561    -1.515632     0.722924
H      2.205461    -0.891894     0.700578
H      1.302992    -1.600284     1.634306
O      1.297210     1.818155     1.214323
H      1.433743     2.095204     2.181625
H      2.169762     1.506935     0.937370
O     -1.726322    -1.655173    -0.241891
H     -2.216976    -1.775963     0.645435
H     -1.679070    -2.537642    -0.673875

units ang
no_reorient
no_com
symmetry c1
}

set {
basis        aug-cc-pVTZ
scf_type     df
}

energy("sapt2+")
--------------------------------------------------------------------------

  //              Dimer HF             //
    Molecular point group: c1
  Charge       = 1
  Multiplicity = 1
  Basis Set: AUG-CC-PVTZ
    Blend: AUG-CC-PVTZ
  Basis Set: (AUG-CC-PVTZ AUX)
    Blend: AUG-CC-PVTZ-JKFIT + DEF2-UNIVERSAL-JKFIT
  @DF-RHF Final Energy:  -542.07402448592336
    Total Energy =                       -542.0740244859233599
 Dipole X            :          7.9173917           -7.8616103            0.0557814
 Dipole Y            :        -19.5734963           19.8278266            0.2543304
 Dipole Z            :        -11.6914084           12.5540932            0.8626848
 Magnitude           :                                                    0.9011218
  //            Monomer A HF           //
    Molecular point group: c1
  Multiplicity = 1
  Basis Set: AUG-CC-PVTZ
    Blend: AUG-CC-PVTZ
  Basis Set: (AUG-CC-PVTZ AUX)
    Blend: AUG-CC-PVTZ-JKFIT + DEF2-UNIVERSAL-JKFIT
  @DF-RHF Final Energy:  -161.67609248704289
    Total Energy =                       -161.6760924870429221
  //            Monomer B HF           //
    Molecular point group: c1

    Geometry (in Angstrom), charge = 0, multiplicity = 1:

       Center              X                  Y                   Z               Mass
    ------------   -----------------  -----------------  -----------------  -----------------
      Gh(NA)          0.000000000000     0.000000000000     0.000000000000    22.989769282000
         O           -1.748724000000     1.414062000000     0.874886000000    15.994914619570
         H           -1.689945000000     2.308594000000     0.549541000000     1.007825032230
         H           -2.361366000000     1.350837000000     1.632814000000     1.007825032230
         O            0.302414000000     0.965556000000    -2.034213000000    15.994914619570
         H           -0.601270000000     1.062348000000    -2.426937000000     1.007825032230
         H            0.779372000000     0.758555000000    -2.825749000000     1.007825032230
         O            1.437561000000    -1.515632000000     0.722924000000    15.994914619570
         H            2.205461000000    -0.891894000000     0.700578000000     1.007825032230
         H            1.302992000000    -1.600284000000     1.634306000000     1.007825032230
         O            1.297210000000     1.818155000000     1.214323000000    15.994914619570
         H            1.433743000000     2.095204000000     2.181625000000     1.007825032230
         H            2.169762000000     1.506935000000     0.937370000000     1.007825032230
         O           -1.726322000000    -1.655173000000    -0.241891000000    15.994914619570
         H           -2.216976000000    -1.775963000000     0.645435000000     1.007825032230
         H           -1.679070000000    -2.537642000000    -0.673875000000     1.007825032230

  Charge       = 0
  Multiplicity = 1
  Basis Set: AUG-CC-PVTZ
    Blend: AUG-CC-PVTZ
  Basis Set: (AUG-CC-PVTZ AUX)
    Blend: AUG-CC-PVTZ-JKFIT + DEF2-UNIVERSAL-JKFIT

    Orbital Energies [Eh]
    ---------------------

    Doubly Occupied:

       1A    -20.553196     2A    -20.538785     3A    -20.538420
       4A    -20.537581     5A    -20.532506     6A     -1.326600
       7A     -1.319838     8A     -1.317723     9A     -1.312263
      10A     -1.294618    11A     -0.694223    12A     -0.684181
      13A     -0.676279    14A     -0.667271    15A     -0.663753
      16A     -0.564071    17A     -0.559858    18A     -0.554718
      19A     -0.538771    20A     -0.528280    21A     -0.491851
      22A     -0.477897    23A     -0.476713    24A     -0.473033
      25A     -0.467203

  @DF-RHF Final Energy:  -380.26298240884665

   => Energetics <=

    Nuclear Repulsion Energy =            185.4842144044184806
    One-Electron Energy =                -895.9151207580334813
    Two-Electron Energy =                 330.1679239447683472
    Total Energy =                       -380.2629824088466535
 Dipole X            :          7.9650373           -7.8616103            0.1034270
 Dipole Y            :        -19.6473982           19.8278266            0.1804285
 Dipole Z            :        -11.7778096           12.5540932            0.7762836
 Magnitude           :                                                    0.8036590

    SAPT Results
  --------------------------------------------------------------------------------------------------------
    Electrostatics               -131.13436946 [mEh]     -82.28805918 [kcal/mol]    -344.29323959 [kJ/mol]
      Elst10,r                   -138.38021572 [mEh]     -86.83489635 [kcal/mol]    -363.31720632 [kJ/mol]
      Elst12,r                      7.24584626 [mEh]       4.54683717 [kcal/mol]      19.02396673 [kJ/mol]

    Exchange                       41.91468134 [mEh]      26.30185963 [kcal/mol]     110.04698069 [kJ/mol]
      Exch10                       37.56192330 [mEh]      23.57046272 [kcal/mol]      98.61881604 [kJ/mol]
      Exch10(S^2)                  37.50806959 [mEh]      23.53666901 [kcal/mol]      98.47742315 [kJ/mol]
      Exch11(S^2)                  -0.82092389 [mEh]      -0.51513752 [kcal/mol]      -2.15533536 [kJ/mol]
      Exch12(S^2)                   5.17368192 [mEh]       3.24653442 [kcal/mol]      13.58350001 [kJ/mol]

    Induction                     -39.66192805 [mEh]     -24.88823560 [kcal/mol]    -104.13237776 [kJ/mol]
      Ind20,r                     -70.09885213 [mEh]     -43.98769381 [kcal/mol]    -184.04451091 [kJ/mol]
      Ind22                       -10.60591055 [mEh]      -6.65530935 [kcal/mol]     -27.84581431 [kJ/mol]
      Exch-Ind20,r                 33.54462666 [mEh]      21.04957102 [kcal/mol]      88.07140517 [kJ/mol]
      Exch-Ind22                    5.07528011 [mEh]       3.18478635 [kcal/mol]      13.32514609 [kJ/mol]
      delta HF,r (2)                2.42292786 [mEh]       1.52041018 [kcal/mol]       6.36139621 [kJ/mol]

    Dispersion                     -3.30144601 [mEh]      -2.07168865 [kcal/mol]      -8.66794531 [kJ/mol]
      Disp20                       -3.32622969 [mEh]      -2.08724064 [kcal/mol]      -8.73301484 [kJ/mol]
      Disp21                       -0.08699331 [mEh]      -0.05458913 [kcal/mol]      -0.22840091 [kJ/mol]
      Disp22 (SDQ)                 -0.20910216 [mEh]      -0.13121359 [kcal/mol]      -0.54899764 [kJ/mol]
      Disp22 (T)                   -0.28330977 [mEh]      -0.17777956 [kcal/mol]      -0.74382969 [kJ/mol]
      Est. Disp22 (T)              -0.32404492 [mEh]      -0.20334125 [kcal/mol]      -0.85077981 [kJ/mol]
      Exch-Disp20                   0.64492406 [mEh]       0.40469596 [kcal/mol]       1.69324789 [kJ/mol]

  Total HF                       -134.94959003 [mEh]     -84.68214623 [kcal/mol]    -354.31009982 [kJ/mol]
  Total SAPT0                    -137.63089566 [mEh]     -86.36469091 [kcal/mol]    -361.34986677 [kJ/mol]
  Total SAPT2                    -131.56292181 [mEh]     -82.55697983 [kcal/mol]    -345.41840362 [kJ/mol]
  Total SAPT2+                   -132.18306219 [mEh]     -82.94612380 [kcal/mol]    -347.04658198 [kJ/mol]

  Special recipe for scaled SAPT0 (see Manual):
    Electrostatics sSAPT0        -138.38021572 [mEh]     -86.83489635 [kcal/mol]    -363.31720632 [kJ/mol]
    Exchange sSAPT0                37.56192330 [mEh]      23.57046272 [kcal/mol]      98.61881604 [kJ/mol]
    Induction sSAPT0              -33.98660095 [mEh]     -21.32691408 [kcal/mol]     -89.23180850 [kJ/mol]
    Dispersion sSAPT0              -2.67852371 [mEh]      -1.68079900 [kcal/mol]      -7.03246303 [kJ/mol]
  Total sSAPT0                   -137.48341708 [mEh]     -86.27214670 [kcal/mol]    -360.96266181 [kJ/mol]
  --------------------------------------------------------------------------------------------------------

*** Psi4 exiting successfully. Buy a developer a beer!
