                               Psi4 1.9 release

  ==> Input File <==

--------------------------------------------------------------------------
MEMORY 60 GB

molecule dimer {
1 1
Na     0.000000     0.000000     0.000000
--
0 1
O      0.954819     1.660987    -1.074380
H      0.801764     2.636974    -1.072418
H      1.647407     1.475023    -1.768699
O      1.731358    -1.499028    -0.404719
H      1.341958    -2.259563     0.035339
H      1.778928    -1.780792    -1.299789
O      0.649501     0.267862     2.064278
H      1.262818     0.937200     2.368076
H      0.594691    -0.289524     2.874892
O     -1.650746     1.627578     1.227517
H     -0.937475     1.262507     1.773525
H     -2.433155     1.122101     1.300427
O     -1.573423    -0.329419    -1.795216
H     -2.311819     0.249475    -2.145586
H     -1.174989    -0.659191    -2.614392

units ang
no_reorient
no_com
symmetry c1
}

set {
basis        aug-cc-pVTZ
scf_type     df
}

energy("sapt2+")
--------------------------------------------------------------------------

  //              Dimer HF             //
    Molecular point group: c1
  Charge       = 1
  Multiplicity = 1
  Basis Set: AUG-CC-PVTZ
    Blend: AUG-CC-PVTZ
  Basis Set: (AUG-CC-PVTZ AUX)
    Blend: AUG-CC-PVTZ-JKFIT + DEF2-UNIVERSAL-JKFIT
  @DF-RHF Final Energy:  -542.07807913225804
    Total Energy =                       -542.0780791322579262
 Dipole X            :         -2.2921059            2.7631575            0.4710516
 Dipole Y            :        -31.6359618           31.2145906           -0.4213712
 Dipole Z            :          0.4263322           -0.7724917           -0.3461595
 Magnitude           :                                                    0.7206037
  //            Monomer A HF           //
    Molecular point group: c1
  Multiplicity = 1
  Basis Set: AUG-CC-PVTZ
    Blend: AUG-CC-PVTZ
  Basis Set: (AUG-CC-PVTZ AUX)
    Blend: AUG-CC-PVTZ-JKFIT + DEF2-UNIVERSAL-JKFIT
  @DF-RHF Final Energy:  -161.67609384713643
    Total Energy =                       -161.6760938471364284
  //            Monomer B HF           //
    Molecular point group: c1

    Geometry (in Angstrom), charge = 0, multiplicity = 1:

       Center              X                  Y                   Z               Mass
    ------------   -----------------  -----------------  -----------------  -----------------
      Gh(NA)          0.000000000000     0.000000000000     0.000000000000    22.989769282000
         O            0.954819000000     1.660987000000    -1.074380000000    15.994914619570
         H            0.801764000000     2.636974000000    -1.072418000000     1.007825032230
         H            1.647407000000     1.475023000000    -1.768699000000     1.007825032230
         O            1.731358000000    -1.499028000000    -0.404719000000    15.994914619570
         H            1.341958000000    -2.259563000000     0.035339000000     1.007825032230
         H            1.778928000000    -1.780792000000    -1.299789000000     1.007825032230
         O            0.649501000000     0.267862000000     2.064278000000    15.994914619570
         H            1.262818000000     0.937200000000     2.368076000000     1.007825032230
         H            0.594691000000    -0.289524000000     2.874892000000     1.007825032230
         O           -1.650746000000     1.627578000000     1.227517000000    15.994914619570
         H           -0.937475000000     1.262507000000     1.773525000000     1.007825032230
         H           -2.433155000000     1.122101000000     1.300427000000     1.007825032230
         O           -1.573423000000    -0.329419000000    -1.795216000000    15.994914619570
         H           -2.311819000000     0.249475000000    -2.145586000000     1.007825032230
         H           -1.174989000000    -0.659191000000    -2.614392000000     1.007825032230

  Charge       = 0
  Multiplicity = 1
  Basis Set: AUG-CC-PVTZ
    Blend: AUG-CC-PVTZ
  Basis Set: (AUG-CC-PVTZ AUX)
    Blend: AUG-CC-PVTZ-JKFIT + DEF2-UNIVERSAL-JKFIT

    Orbital Energies [Eh]
    ---------------------

    Doubly Occupied:

       1A    -20.566970     2A    -20.545819     3A    -20.541711
       4A    -20.537229     5A    -20.504532     6A     -1.349254
       7A     -1.334028     8A     -1.314439     9A     -1.299099
      10A     -1.296814    11A     -0.698556    12A     -0.693924
      13A     -0.686863    14A     -0.671046    15A     -0.667654
      16A     -0.587833    17A     -0.564109    18A     -0.556391
      19A     -0.535531    20A     -0.528743    21A     -0.495849
      22A     -0.485470    23A     -0.483708    24A     -0.467270
      25A     -0.452816

  @DF-RHF Final Energy:  -380.27770175061437

   => Energetics <=

    Nuclear Repulsion Energy =            189.6165155397847002
    One-Electron Energy =                -904.0571107472595713
    Two-Electron Energy =                 334.1628934568605018
    Total Energy =                       -380.2777017506143693
 Dipole X            :         -2.3570184            2.7631575            0.4061391
 Dipole Y            :        -31.8327695           31.2145906           -0.6181789
 Dipole Z            :          0.4758957           -0.7724917           -0.2965960
 Magnitude           :                                                    0.7969086

    SAPT Results
  --------------------------------------------------------------------------------------------------------
    Electrostatics               -123.09058763 [mEh]     -77.24050987 [kcal/mol]    -323.17429330 [kJ/mol]
      Elst10,r                   -130.34500932 [mEh]     -81.79272821 [kcal/mol]    -342.22077483 [kJ/mol]
      Elst12,r                      7.25442170 [mEh]       4.55221834 [kcal/mol]      19.04648154 [kJ/mol]

    Exchange                       45.72347313 [mEh]      28.69191256 [kcal/mol]     120.04696217 [kJ/mol]
      Exch10                       41.37041795 [mEh]      25.96032920 [kcal/mol]     108.61801736 [kJ/mol]
      Exch10(S^2)                  41.29889888 [mEh]      25.91545031 [kcal/mol]     108.43024408 [kJ/mol]
      Exch11(S^2)                  -0.91760731 [mEh]      -0.57580728 [kcal/mol]      -2.40917766 [kJ/mol]
      Exch12(S^2)                   5.27066249 [mEh]       3.30739065 [kcal/mol]      13.83812246 [kJ/mol]

    Induction                     -40.84418319 [mEh]     -25.63011190 [kcal/mol]    -107.23638819 [kJ/mol]
      Ind20,r                     -73.08732646 [mEh]     -45.86298977 [kcal/mol]    -191.89074919 [kJ/mol]
      Ind22                       -10.70908678 [mEh]      -6.72005341 [kcal/mol]     -28.11670346 [kJ/mol]
      Exch-Ind20,r                 35.31044542 [mEh]      22.15763902 [kcal/mol]      92.70756167 [kJ/mol]
      Exch-Ind22                    5.17384672 [mEh]       3.24663783 [kcal/mol]      13.58393268 [kJ/mol]
      delta HF,r (2)                2.46793791 [mEh]       1.54865442 [kcal/mol]       6.47957010 [kJ/mol]

    Dispersion                     -3.59039759 [mEh]      -2.25300850 [kcal/mol]      -9.42658758 [kJ/mol]
      Disp20                       -3.65924831 [mEh]      -2.29621298 [kcal/mol]      -9.60735510 [kJ/mol]
      Disp21                       -0.06625017 [mEh]      -0.04157261 [kcal/mol]      -0.17393981 [kJ/mol]
      Disp22 (SDQ)                 -0.23415025 [mEh]      -0.14693150 [kcal/mol]      -0.61476139 [kJ/mol]
      Disp22 (T)                   -0.31556146 [mEh]      -0.19801780 [kcal/mol]      -0.82850649 [kJ/mol]
      Est. Disp22 (T)              -0.35977394 [mEh]      -0.22576156 [kcal/mol]      -0.94458635 [kJ/mol]
      Exch-Disp20                   0.72902508 [mEh]       0.45747014 [kcal/mol]       1.91405507 [kJ/mol]

  Total HF                       -124.28353451 [mEh]     -77.98909534 [kcal/mol]    -326.30637489 [kJ/mol]
  Total SAPT0                    -127.21375774 [mEh]     -79.82783817 [kcal/mol]    -333.99967492 [kJ/mol]
  Total SAPT2                    -121.14152092 [mEh]     -76.01745204 [kcal/mol]    -318.05701935 [kJ/mol]
  Total SAPT2+                   -121.80169528 [mEh]     -76.43171771 [kcal/mol]    -319.79030690 [kJ/mol]

  Special recipe for scaled SAPT0 (see Manual):
    Electrostatics sSAPT0        -130.34500932 [mEh]     -81.79272821 [kcal/mol]    -342.22077483 [kJ/mol]
    Exchange sSAPT0                41.37041795 [mEh]      25.96032920 [kcal/mol]     108.61801736 [kJ/mol]
    Induction sSAPT0              -35.12517945 [mEh]     -22.04138287 [kcal/mol]     -92.22114594 [kJ/mol]
    Dispersion sSAPT0              -2.92642922 [mEh]      -1.83636206 [kcal/mol]      -7.68333885 [kJ/mol]
  Total sSAPT0                   -127.02620004 [mEh]     -79.71014394 [kcal/mol]    -333.50724226 [kJ/mol]
  --------------------------------------------------------------------------------------------------------

*** Psi4 exiting successfully. Buy a developer a beer!
