                               Psi4 1.9 release

  ==> Input File <==

--------------------------------------------------------------------------
MEMORY 60 GB

molecule dimer {
1 1
Na     0.000000     0.000000     0.000000
--
0 1
O     -1.371627    -0.910990    -1.738968
H     -2.225004    -0.362023    -1.723958
H     -1.583777    -1.810688    -1.348074
O     -1.627495     1.776149     0.403766
H     -1.295572     2.668369     0.129330
H     -2.180298     1.827238     1.131582
O      1.777113    -1.842919    -0.309474
H      1.036427    -2.184772     0.244859
H      2.605022    -1.908448     0.154364
O     -0.746949    -1.450897     1.784131
H     -1.396092    -2.132055     1.814768
H     -0.857192    -1.089903     2.632736

units ang
no_reorient
no_com
symmetry c1
}

set {
basis        aug-cc-pVTZ
scf_type     df
}

energy("sapt2+")
--------------------------------------------------------------------------

  //              Dimer HF             //
    Molecular point group: c1
  Charge       = 1
  Multiplicity = 1
  Basis Set: AUG-CC-PVTZ
    Blend: AUG-CC-PVTZ
  Basis Set: (AUG-CC-PVTZ AUX)
    Blend: AUG-CC-PVTZ-JKFIT + DEF2-UNIVERSAL-JKFIT
  @DF-RHF Final Energy:  -465.99993892574832
    Total Energy =                       -465.9999389257483244
 Dipole X            :         39.3398472          -40.9090746           -1.5692275
 Dipole Y            :         45.9451372          -46.1500184           -0.2048812
 Dipole Z            :         -5.8892570            7.8447199            1.9554629
 Magnitude           :                                                    2.5156085
  //            Monomer A HF           //
    Molecular point group: c1
  Multiplicity = 1
  Basis Set: AUG-CC-PVTZ
    Blend: AUG-CC-PVTZ
  Basis Set: (AUG-CC-PVTZ AUX)
    Blend: AUG-CC-PVTZ-JKFIT + DEF2-UNIVERSAL-JKFIT
  @DF-RHF Final Energy:  -161.67608264193643
    Total Energy =                       -161.6760826419364037
  //            Monomer B HF           //
    Molecular point group: c1

    Geometry (in Angstrom), charge = 0, multiplicity = 1:

       Center              X                  Y                   Z               Mass
    ------------   -----------------  -----------------  -----------------  -----------------
      Gh(NA)          0.000000000000     0.000000000000     0.000000000000    22.989769282000
         O           -1.371627000000    -0.910990000000    -1.738968000000    15.994914619570
         H           -2.225004000000    -0.362023000000    -1.723958000000     1.007825032230
         H           -1.583777000000    -1.810688000000    -1.348074000000     1.007825032230
         O           -1.627495000000     1.776149000000     0.403766000000    15.994914619570
         H           -1.295572000000     2.668369000000     0.129330000000     1.007825032230
         H           -2.180298000000     1.827238000000     1.131582000000     1.007825032230
         O            1.777113000000    -1.842919000000    -0.309474000000    15.994914619570
         H            1.036427000000    -2.184772000000     0.244859000000     1.007825032230
         H            2.605022000000    -1.908448000000     0.154364000000     1.007825032230
         O           -0.746949000000    -1.450897000000     1.784131000000    15.994914619570
         H           -1.396092000000    -2.132055000000     1.814768000000     1.007825032230
         H           -0.857192000000    -1.089903000000     2.632736000000     1.007825032230

  Charge       = 0
  Multiplicity = 1
  Basis Set: AUG-CC-PVTZ
    Blend: AUG-CC-PVTZ
  Basis Set: (AUG-CC-PVTZ AUX)
    Blend: AUG-CC-PVTZ-JKFIT + DEF2-UNIVERSAL-JKFIT

    Orbital Energies [Eh]
    ---------------------

    Doubly Occupied:

       1A    -20.571270     2A    -20.554317     3A    -20.544107
       4A    -20.531498     5A     -1.376089     6A     -1.343814
       7A     -1.309706     8A     -1.296025     9A     -0.727599
      10A     -0.725681    11A     -0.690190    12A     -0.665327
      13A     -0.605500    14A     -0.561798    15A     -0.539380
      16A     -0.535610    17A     -0.519236    18A     -0.499945
      19A     -0.474636    20A     -0.472367

  @DF-RHF Final Energy:  -304.22181939232865

   => Energetics <=

    Nuclear Repulsion Energy =            120.2544823244280821
    One-Electron Energy =                -659.8644080678946011
    Two-Electron Energy =                 235.3881063511379068
    Total Energy =                       -304.2218193923285980
 Dipole X            :         39.6175028          -40.9090746           -1.2915718
 Dipole Y            :         46.1923379          -46.1500184            0.0423196
 Dipole Z            :         -5.9520930            7.8447199            1.8926270
 Magnitude           :                                                    2.2917211

    SAPT Results
  --------------------------------------------------------------------------------------------------------
    Electrostatics                -92.71852087 [mEh]     -58.18175024 [kcal/mol]    -243.43244300 [kJ/mol]
      Elst10,r                    -96.89716997 [mEh]     -60.80389214 [kcal/mol]    -254.40348471 [kJ/mol]
      Elst12,r                      4.17864910 [mEh]       2.62214190 [kcal/mol]      10.97104171 [kJ/mol]

    Exchange                       23.59809547 [mEh]      14.80802847 [kcal/mol]      61.95679111 [kJ/mol]
      Exch10                       20.60170339 [mEh]      12.92776405 [kcal/mol]      54.08976479 [kJ/mol]
      Exch10(S^2)                  20.57676159 [mEh]      12.91211284 [kcal/mol]      54.02428011 [kJ/mol]
      Exch11(S^2)                  -0.36282577 [mEh]      -0.22767661 [kcal/mol]      -0.95259892 [kJ/mol]
      Exch12(S^2)                   3.35921784 [mEh]       2.10794102 [kcal/mol]       8.81962524 [kJ/mol]

    Induction                     -29.98587857 [mEh]     -18.81642288 [kcal/mol]     -78.72791334 [kJ/mol]
      Ind20,r                     -47.43473309 [mEh]     -29.76574440 [kcal/mol]    -124.53987457 [kJ/mol]
      Ind22                        -7.35325351 [mEh]      -4.61423624 [kcal/mol]     -19.30596444 [kJ/mol]
      Exch-Ind20,r                 20.05440047 [mEh]      12.58432629 [kcal/mol]      52.65282118 [kJ/mol]
      Exch-Ind22                    3.10879984 [mEh]       1.95080135 [kcal/mol]       8.16215286 [kJ/mol]
      delta HF,r (2)                1.63890772 [mEh]       1.02843012 [kcal/mol]       4.30295162 [kJ/mol]

    Dispersion                     -2.07985092 [mEh]      -1.30512616 [kcal/mol]      -5.46064785 [kJ/mol]
      Disp20                       -1.98266745 [mEh]      -1.24414261 [kcal/mol]      -5.20549267 [kJ/mol]
      Disp21                       -0.08349587 [mEh]      -0.05239445 [kcal/mol]      -0.21921839 [kJ/mol]
      Disp22 (SDQ)                 -0.13013569 [mEh]      -0.08166138 [kcal/mol]      -0.34167121 [kJ/mol]
      Disp22 (T)                   -0.16860629 [mEh]      -0.10580205 [kcal/mol]      -0.44267576 [kJ/mol]
      Est. Disp22 (T)              -0.19695377 [mEh]      -0.12359036 [kcal/mol]      -0.51710205 [kJ/mol]
      Exch-Disp20                   0.31340186 [mEh]       0.19666263 [kcal/mol]       0.82283646 [kJ/mol]

  Total HF                       -102.03689148 [mEh]     -64.02911608 [kcal/mol]    -267.89782168 [kJ/mol]
  Total SAPT0                    -103.70615707 [mEh]     -65.07659605 [kcal/mol]    -272.28047788 [kJ/mol]
  Total SAPT2                    -100.77556956 [mEh]     -63.23762463 [kcal/mol]    -264.58622144 [kJ/mol]
  Total SAPT2+                   -101.18615490 [mEh]     -63.49527081 [kcal/mol]    -265.66421309 [kJ/mol]

  Special recipe for scaled SAPT0 (see Manual):
    Electrostatics sSAPT0         -96.89716997 [mEh]     -60.80389214 [kcal/mol]    -254.40348471 [kJ/mol]
    Exchange sSAPT0                20.60170339 [mEh]      12.92776405 [kcal/mol]      54.08976479 [kJ/mol]
    Induction sSAPT0              -25.66841059 [mEh]     -16.10717082 [kcal/mol]     -67.39240271 [kJ/mol]
    Dispersion sSAPT0              -1.66812455 [mEh]      -1.04676396 [kcal/mol]      -4.37966041 [kJ/mol]
  Total sSAPT0                   -103.63200172 [mEh]     -65.03006287 [kcal/mol]    -272.08578304 [kJ/mol]
  --------------------------------------------------------------------------------------------------------

*** Psi4 exiting successfully. Buy a developer a beer!
