                               Psi4 1.9 release

  ==> Input File <==

--------------------------------------------------------------------------
MEMORY 60 GB

molecule dimer {
1 1
Na     0.000000     0.000000     0.000000
--
0 1
O     -0.373908    -0.320673     2.484518
H     -1.075171     0.267965     2.781766
H      0.357161    -0.112230     3.132774
O      0.260806     2.188773     0.689234
H      1.017755     2.399399     1.221425
H     -0.370081     2.837143     1.057611
O      2.323825    -0.799730    -0.920658
H      3.073215    -0.195934    -0.764671
H      2.715529    -1.654161    -1.127599
O     -0.099702    -2.132529    -0.499752
H     -0.685269    -2.335558    -1.251089
H      0.749660    -2.501080    -0.828822
O     -1.009062     0.489742    -2.280169
H     -1.671643    -0.043495    -2.783804
H     -1.520087     1.285755    -2.004546
O     -2.549908    -0.286113    -0.075637
H     -2.716610     0.677349    -0.098151
H     -3.230088    -0.649298    -0.683917

units ang
no_reorient
no_com
symmetry c1
}

set {
basis        aug-cc-pVTZ
scf_type     df
}

energy("sapt2+")
--------------------------------------------------------------------------

  //              Dimer HF             //
    Molecular point group: c1
  Charge       = 1
  Multiplicity = 1
  Basis Set: AUG-CC-PVTZ
    Blend: AUG-CC-PVTZ
  Basis Set: (AUG-CC-PVTZ AUX)
    Blend: AUG-CC-PVTZ-JKFIT + DEF2-UNIVERSAL-JKFIT
  @DF-RHF Final Energy:  -618.13358929387266
    Total Energy =                       -618.1335892938726602
 Dipole X            :         27.9215471          -28.2310362           -0.3094891
 Dipole Y            :         14.1187906          -13.0549556            1.0638350
 Dipole Z            :         11.5659530          -11.6572197           -0.0912667
 Magnitude           :                                                    1.1116915
  //            Monomer A HF           //
    Molecular point group: c1
  Multiplicity = 1
  Basis Set: AUG-CC-PVTZ
    Blend: AUG-CC-PVTZ
  Basis Set: (AUG-CC-PVTZ AUX)
    Blend: AUG-CC-PVTZ-JKFIT + DEF2-UNIVERSAL-JKFIT
  @DF-RHF Final Energy:  -161.67609436153799
    Total Energy =                       -161.6760943615379915
  //            Monomer B HF           //
    Molecular point group: c1

    Geometry (in Angstrom), charge = 0, multiplicity = 1:

       Center              X                  Y                   Z               Mass
    ------------   -----------------  -----------------  -----------------  -----------------
      Gh(NA)          0.000000000000     0.000000000000     0.000000000000    22.989769282000
         O           -0.373908000000    -0.320673000000     2.484518000000    15.994914619570
         H           -1.075171000000     0.267965000000     2.781766000000     1.007825032230
         H            0.357161000000    -0.112230000000     3.132774000000     1.007825032230
         O            0.260806000000     2.188773000000     0.689234000000    15.994914619570
         H            1.017755000000     2.399399000000     1.221425000000     1.007825032230
         H           -0.370081000000     2.837143000000     1.057611000000     1.007825032230
         O            2.323825000000    -0.799730000000    -0.920658000000    15.994914619570
         H            3.073215000000    -0.195934000000    -0.764671000000     1.007825032230
         H            2.715529000000    -1.654161000000    -1.127599000000     1.007825032230
         O           -0.099702000000    -2.132529000000    -0.499752000000    15.994914619570
         H           -0.685269000000    -2.335558000000    -1.251089000000     1.007825032230
         H            0.749660000000    -2.501080000000    -0.828822000000     1.007825032230
         O           -1.009062000000     0.489742000000    -2.280169000000    15.994914619570
         H           -1.671643000000    -0.043495000000    -2.783804000000     1.007825032230
         H           -1.520087000000     1.285755000000    -2.004546000000     1.007825032230
         O           -2.549908000000    -0.286113000000    -0.075637000000    15.994914619570
         H           -2.716610000000     0.677349000000    -0.098151000000     1.007825032230
         H           -3.230088000000    -0.649298000000    -0.683917000000     1.007825032230

  Charge       = 0
  Multiplicity = 1
  Basis Set: AUG-CC-PVTZ
    Blend: AUG-CC-PVTZ
  Basis Set: (AUG-CC-PVTZ AUX)
    Blend: AUG-CC-PVTZ-JKFIT + DEF2-UNIVERSAL-JKFIT

    Orbital Energies [Eh]
    ---------------------

    Doubly Occupied:

       1A    -20.552053     2A    -20.543732     3A    -20.543128
       4A    -20.538849     5A    -20.531158     6A    -20.512656
       7A     -1.337031     8A     -1.323860     9A     -1.318085
      10A     -1.305217    11A     -1.302412    12A     -1.285936
      13A     -0.694592    14A     -0.687021    15A     -0.680109
      16A     -0.665172    17A     -0.658910    18A     -0.639129
      19A     -0.574110    20A     -0.558035    21A     -0.552370
      22A     -0.544450    23A     -0.538601    24A     -0.523882
      25A     -0.500350    26A     -0.497465    27A     -0.483662
      28A     -0.461880    29A     -0.455009    30A     -0.445631

  @DF-RHF Final Energy:  -456.30375295380333

   => Energetics <=

    Nuclear Repulsion Energy =            265.9734260761462110
    One-Electron Energy =               -1162.0453581397000562
    Two-Electron Energy =                 439.7681791097505197
    Total Energy =                       -456.3037529538033255
 Dipole X            :         28.0708929          -28.2310362           -0.1601433
 Dipole Y            :         14.1764634          -13.0549556            1.1215077
 Dipole Z            :         11.6218745          -11.6572197           -0.0353452
 Magnitude           :                                                    1.1334349

    SAPT Results
  --------------------------------------------------------------------------------------------------------
    Electrostatics               -139.48141143 [mEh]     -87.52590709 [kcal/mol]    -366.20839527 [kJ/mol]
      Elst10,r                   -149.37391369 [mEh]     -93.73354598 [kcal/mol]    -392.18115637 [kJ/mol]
      Elst12,r                      9.89250226 [mEh]       6.20763889 [kcal/mol]      25.97276110 [kJ/mol]

    Exchange                       35.15548286 [mEh]      22.06039855 [kcal/mol]      92.30070755 [kJ/mol]
      Exch10                       31.52575349 [mEh]      19.78270898 [kcal/mol]      82.77085438 [kJ/mol]
      Exch10(S^2)                  31.47153396 [mEh]      19.74868571 [kcal/mol]      82.62850102 [kJ/mol]
      Exch11(S^2)                  -0.68518532 [mEh]      -0.42996028 [kcal/mol]      -1.79895381 [kJ/mol]
      Exch12(S^2)                   4.31491470 [mEh]       2.70764985 [kcal/mol]      11.32880697 [kJ/mol]

    Induction                     -41.52349327 [mEh]     -26.05638541 [kcal/mol]    -109.01991656 [kJ/mol]
      Ind20,r                     -65.27035056 [mEh]     -40.95776333 [kcal/mol]    -171.36728179 [kJ/mol]
      Ind22                        -9.74678316 [mEh]      -6.11619877 [kcal/mol]     -25.59017566 [kJ/mol]
      Exch-Ind20,r                 27.57064481 [mEh]      17.30084082 [kcal/mol]      72.38671799 [kJ/mol]
      Exch-Ind22                    4.11710822 [mEh]       2.58352441 [kcal/mol]      10.80946613 [kJ/mol]
      delta HF,r (2)                1.80588742 [mEh]       1.13321147 [kcal/mol]       4.74135678 [kJ/mol]

    Dispersion                     -3.32355966 [mEh]      -2.08556517 [kcal/mol]      -8.72600468 [kJ/mol]
      Disp20                       -3.28485478 [mEh]      -2.06127750 [kcal/mol]      -8.62438505 [kJ/mol]
      Disp21                       -0.05960351 [mEh]      -0.03740177 [kcal/mol]      -0.15648900 [kJ/mol]
      Disp22 (SDQ)                 -0.20976000 [mEh]      -0.13162639 [kcal/mol]      -0.55072481 [kJ/mol]
      Disp22 (T)                   -0.28759203 [mEh]      -0.18046672 [kcal/mol]      -0.75507277 [kJ/mol]
      Est. Disp22 (T)              -0.32483760 [mEh]      -0.20383867 [kcal/mol]      -0.85286101 [kJ/mol]
      Exch-Disp20                   0.55549625 [mEh]       0.34857916 [kcal/mol]       1.45845519 [kJ/mol]

  Total HF                       -153.74197853 [mEh]     -96.47454805 [kcal/mol]    -403.64950902 [kJ/mol]
  Total SAPT0                    -156.47133707 [mEh]     -98.18724639 [kcal/mol]    -410.81543888 [kJ/mol]
  Total SAPT2                    -148.57878038 [mEh]     -93.23459229 [kcal/mol]    -390.09353413 [kJ/mol]
  Total SAPT2+                   -149.17298149 [mEh]     -93.60745912 [kcal/mol]    -391.65360896 [kJ/mol]

  Special recipe for scaled SAPT0 (see Manual):
    Electrostatics sSAPT0        -149.37391369 [mEh]     -93.73354598 [kcal/mol]    -392.18115637 [kJ/mol]
    Exchange sSAPT0                31.52575349 [mEh]      19.78270898 [kcal/mol]      82.77085438 [kJ/mol]
    Induction sSAPT0              -35.75107559 [mEh]     -22.43413863 [kcal/mol]     -93.86443602 [kJ/mol]
    Dispersion sSAPT0              -2.72648254 [mEh]      -1.71089363 [kcal/mol]      -7.15837893 [kJ/mol]
  Total sSAPT0                   -156.32571833 [mEh]     -98.09586925 [kcal/mol]    -410.43311694 [kJ/mol]
  --------------------------------------------------------------------------------------------------------

*** Psi4 exiting successfully. Buy a developer a beer!
