                               Psi4 1.9 release

  ==> Input File <==

--------------------------------------------------------------------------
MEMORY 60 GB

molecule dimer {
1 1
Na     0.000000     0.000000     0.000000
--
0 1
O     -1.982434     0.371909     1.103721
H     -1.999968    -0.133509     1.915544
H     -2.677161    -0.029523     0.520499
O     -0.506861     1.576105    -1.534582
H     -1.312414     2.123471    -1.457035
H      0.255777     2.156557    -1.829559
O      1.680895    -0.267523    -1.814314
H      1.826160     0.587119    -2.126473
H      2.577908    -0.601219    -1.659205
O      1.269075    -0.963815     1.515438
H      1.588209    -1.762903     1.072335
H      1.939449    -0.207875     1.425336

units ang
no_reorient
no_com
symmetry c1
}

set {
basis        aug-cc-pVTZ
scf_type     df
}

energy("sapt2+")
--------------------------------------------------------------------------

  //              Dimer HF             //
    Molecular point group: c1
  Charge       = 1
  Multiplicity = 1
  Basis Set: AUG-CC-PVTZ
    Blend: AUG-CC-PVTZ
  Basis Set: (AUG-CC-PVTZ AUX)
    Blend: AUG-CC-PVTZ-JKFIT + DEF2-UNIVERSAL-JKFIT
  @DF-RHF Final Energy:  -465.99638639003308
    Total Energy =                       -465.9963863900330807
 Dipole X            :        -10.2768315           11.1179391            0.8411076
 Dipole Y            :        -14.3488474           14.8636900            0.5148426
 Dipole Z            :         14.5730069          -15.0733135           -0.5003067
 Magnitude           :                                                    1.1058171
  //            Monomer A HF           //
    Molecular point group: c1
  Multiplicity = 1
  Basis Set: AUG-CC-PVTZ
    Blend: AUG-CC-PVTZ
  Basis Set: (AUG-CC-PVTZ AUX)
    Blend: AUG-CC-PVTZ-JKFIT + DEF2-UNIVERSAL-JKFIT
  @DF-RHF Final Energy:  -161.67608456739401
    Total Energy =                       -161.6760845673940423
  //            Monomer B HF           //
    Molecular point group: c1

    Geometry (in Angstrom), charge = 0, multiplicity = 1:

       Center              X                  Y                   Z               Mass
    ------------   -----------------  -----------------  -----------------  -----------------
      Gh(NA)          0.000000000000     0.000000000000     0.000000000000    22.989769282000
         O           -1.982434000000     0.371909000000     1.103721000000    15.994914619570
         H           -1.999968000000    -0.133509000000     1.915544000000     1.007825032230
         H           -2.677161000000    -0.029523000000     0.520499000000     1.007825032230
         O           -0.506861000000     1.576105000000    -1.534582000000    15.994914619570
         H           -1.312414000000     2.123471000000    -1.457035000000     1.007825032230
         H            0.255777000000     2.156557000000    -1.829559000000     1.007825032230
         O            1.680895000000    -0.267523000000    -1.814314000000    15.994914619570
         H            1.826160000000     0.587119000000    -2.126473000000     1.007825032230
         H            2.577908000000    -0.601219000000    -1.659205000000     1.007825032230
         O            1.269075000000    -0.963815000000     1.515438000000    15.994914619570
         H            1.588209000000    -1.762903000000     1.072335000000     1.007825032230
         H            1.939449000000    -0.207875000000     1.425336000000     1.007825032230

  Charge       = 0
  Multiplicity = 1
  Basis Set: AUG-CC-PVTZ
    Blend: AUG-CC-PVTZ
  Basis Set: (AUG-CC-PVTZ AUX)
    Blend: AUG-CC-PVTZ-JKFIT + DEF2-UNIVERSAL-JKFIT

    Orbital Energies [Eh]
    ---------------------

    Doubly Occupied:

       1A    -20.555324     2A    -20.553325     3A    -20.547770
       4A    -20.542034     5A     -1.351924     6A     -1.318203
       7A     -1.316591     8A     -1.311294     9A     -0.717646
      10A     -0.689497    11A     -0.689025    12A     -0.683202
      13A     -0.579570    14A     -0.553707    15A     -0.547246
      16A     -0.545161    17A     -0.503185    18A     -0.487709
      19A     -0.483843    20A     -0.477780

  @DF-RHF Final Energy:  -304.21511071693845

   => Energetics <=

    Nuclear Repulsion Energy =            121.9411374542292350
    One-Electron Energy =                -663.4044140223637669
    Two-Electron Energy =                 237.2481658511961200
    Total Energy =                       -304.2151107169384545
 Dipole X            :        -10.3515088           11.1179391            0.7664303
 Dipole Y            :        -14.4494462           14.8636900            0.4142438
 Dipole Z            :         14.6387669          -15.0733135           -0.4345466
 Magnitude           :                                                    0.9735728

    SAPT Results
  --------------------------------------------------------------------------------------------------------
    Electrostatics               -113.69953174 [mEh]     -71.34753333 [kcal/mol]    -298.51807944 [kJ/mol]
      Elst10,r                   -117.56397880 [mEh]     -73.77251047 [kcal/mol]    -308.66418383 [kJ/mol]
      Elst12,r                      3.86444707 [mEh]       2.42497715 [kcal/mol]      10.14610438 [kJ/mol]

    Exchange                       46.91901504 [mEh]      29.44212644 [kcal/mol]     123.18585701 [kJ/mol]
      Exch10                       41.93075890 [mEh]      26.31194846 [kcal/mol]     110.08919234 [kJ/mol]
      Exch10(S^2)                  41.83707966 [mEh]      26.25316384 [kcal/mol]     109.84323751 [kJ/mol]
      Exch11(S^2)                  -0.84675946 [mEh]      -0.53134959 [kcal/mol]      -2.22316666 [kJ/mol]
      Exch12(S^2)                   5.83501560 [mEh]       3.66152757 [kcal/mol]      15.31983134 [kJ/mol]

    Induction                     -34.68512169 [mEh]     -21.76524246 [kcal/mol]     -91.06577446 [kJ/mol]
      Ind20,r                     -72.42989292 [mEh]     -45.45044399 [kcal/mol]    -190.16465767 [kJ/mol]
      Ind22                       -11.41008066 [mEh]      -7.15993371 [kcal/mol]     -29.95716263 [kJ/mol]
      Exch-Ind20,r                 39.88278323 [mEh]      25.02682432 [kcal/mol]     104.71223294 [kJ/mol]
      Exch-Ind22                    6.28284476 [mEh]       3.94254461 [kcal/mol]      16.49560665 [kJ/mol]
      delta HF,r (2)                2.98922389 [mEh]       1.87576631 [kcal/mol]       7.84820625 [kJ/mol]

    Dispersion                     -2.85763165 [mEh]      -1.79319094 [kcal/mol]      -7.50271087 [kJ/mol]
      Disp20                       -2.94435365 [mEh]      -1.84760981 [kcal/mol]      -7.73039944 [kJ/mol]
      Disp21                       -0.09696600 [mEh]      -0.06084708 [kcal/mol]      -0.25458419 [kJ/mol]
      Disp22 (SDQ)                 -0.19320870 [mEh]      -0.12124029 [kcal/mol]      -0.50726937 [kJ/mol]
      Disp22 (T)                   -0.25113742 [mEh]      -0.15759111 [kcal/mol]      -0.65936120 [kJ/mol]
      Est. Disp22 (T)              -0.29169976 [mEh]      -0.18304436 [kcal/mol]      -0.76585762 [kJ/mol]
      Exch-Disp20                   0.66859645 [mEh]       0.41955061 [kcal/mol]       1.75539975 [kJ/mol]

  Total HF                       -105.19110570 [mEh]     -66.00841538 [kcal/mol]    -276.17920997 [kJ/mol]
  Total SAPT0                    -107.46686290 [mEh]     -67.43647458 [kcal/mol]    -282.15420966 [kJ/mol]
  Total SAPT2                    -103.74139558 [mEh]     -65.09870855 [kcal/mol]    -272.37299658 [kJ/mol]
  Total SAPT2+                   -104.32327004 [mEh]     -65.46384029 [kcal/mol]    -273.90070776 [kJ/mol]

  Special recipe for scaled SAPT0 (see Manual):
    Electrostatics sSAPT0        -117.56397880 [mEh]     -73.77251047 [kcal/mol]    -308.66418383 [kJ/mol]
    Exchange sSAPT0                41.93075890 [mEh]      26.31194846 [kcal/mol]     110.08919234 [kJ/mol]
    Induction sSAPT0              -29.28937558 [mEh]     -18.37936066 [kcal/mol]     -76.89924500 [kJ/mol]
    Dispersion sSAPT0              -2.27125588 [mEh]      -1.42523458 [kcal/mol]      -5.96318149 [kJ/mol]
  Total sSAPT0                   -107.19385136 [mEh]     -67.26515726 [kcal/mol]    -281.43741798 [kJ/mol]
  --------------------------------------------------------------------------------------------------------

*** Psi4 exiting successfully. Buy a developer a beer!
