                               Psi4 1.9 release

  ==> Input File <==

--------------------------------------------------------------------------
MEMORY 60 GB

molecule dimer {
1 1
Na     0.000000     0.000000     0.000000
--
0 1
O     -2.192329    -0.219597     0.872611
H     -2.400627    -1.141881     0.703901
H     -2.733316     0.372478     0.330936
O      0.238623    -0.099539     2.578983
H      0.207742    -1.033748     2.608329
H      1.103598     0.137296     2.191773
O      1.524795     0.116081    -1.794134
H      1.742531     1.047954    -1.881416
H      1.357694    -0.079869    -2.731791
O     -1.274931    -0.745610    -1.953360
H     -0.929134    -0.208918    -2.691167
H     -2.232484    -0.803013    -1.990186
O      1.395144    -1.945533     0.271036
H      1.781949    -2.056633    -0.619793
H      0.646768    -2.590327     0.264060
O     -0.583733     2.446213    -0.013811
H     -0.941055     2.972170    -0.745643
H     -1.111530     2.471200     0.778068

units ang
no_reorient
no_com
symmetry c1
}

set {
basis        aug-cc-pVTZ
scf_type     df
}

energy("sapt2+")
--------------------------------------------------------------------------

  //              Dimer HF             //
    Molecular point group: c1
  Charge       = 1
  Multiplicity = 1
  Basis Set: AUG-CC-PVTZ
    Blend: AUG-CC-PVTZ
  Basis Set: (AUG-CC-PVTZ AUX)
    Blend: AUG-CC-PVTZ-JKFIT + DEF2-UNIVERSAL-JKFIT
  @DF-RHF Final Energy:  -618.13478006715343
    Total Energy =                       -618.1347800671534287
 Dipole X            :         18.9128588          -20.1205037           -1.2076449
 Dipole Y            :          8.5089554           -8.4984215            0.0105339
 Dipole Z            :          5.1917647           -7.7333810           -2.5416163
 Magnitude           :                                                    2.8139529
  //            Monomer A HF           //
    Molecular point group: c1
  Multiplicity = 1
  Basis Set: AUG-CC-PVTZ
    Blend: AUG-CC-PVTZ
  Basis Set: (AUG-CC-PVTZ AUX)
    Blend: AUG-CC-PVTZ-JKFIT + DEF2-UNIVERSAL-JKFIT
  @DF-RHF Final Energy:  -161.67609746194080
    Total Energy =                       -161.6760974619407989
  //            Monomer B HF           //
    Molecular point group: c1

    Geometry (in Angstrom), charge = 0, multiplicity = 1:

       Center              X                  Y                   Z               Mass
    ------------   -----------------  -----------------  -----------------  -----------------
      Gh(NA)          0.000000000000     0.000000000000     0.000000000000    22.989769282000
         O           -2.192329000000    -0.219597000000     0.872611000000    15.994914619570
         H           -2.400627000000    -1.141881000000     0.703901000000     1.007825032230
         H           -2.733316000000     0.372478000000     0.330936000000     1.007825032230
         O            0.238623000000    -0.099539000000     2.578983000000    15.994914619570
         H            0.207742000000    -1.033748000000     2.608329000000     1.007825032230
         H            1.103598000000     0.137296000000     2.191773000000     1.007825032230
         O            1.524795000000     0.116081000000    -1.794134000000    15.994914619570
         H            1.742531000000     1.047954000000    -1.881416000000     1.007825032230
         H            1.357694000000    -0.079869000000    -2.731791000000     1.007825032230
         O           -1.274931000000    -0.745610000000    -1.953360000000    15.994914619570
         H           -0.929134000000    -0.208918000000    -2.691167000000     1.007825032230
         H           -2.232484000000    -0.803013000000    -1.990186000000     1.007825032230
         O            1.395144000000    -1.945533000000     0.271036000000    15.994914619570
         H            1.781949000000    -2.056633000000    -0.619793000000     1.007825032230
         H            0.646768000000    -2.590327000000     0.264060000000     1.007825032230
         O           -0.583733000000     2.446213000000    -0.013811000000    15.994914619570
         H           -0.941055000000     2.972170000000    -0.745643000000     1.007825032230
         H           -1.111530000000     2.471200000000     0.778068000000     1.007825032230

  Charge       = 0
  Multiplicity = 1
  Basis Set: AUG-CC-PVTZ
    Blend: AUG-CC-PVTZ
  Basis Set: (AUG-CC-PVTZ AUX)
    Blend: AUG-CC-PVTZ-JKFIT + DEF2-UNIVERSAL-JKFIT

    Orbital Energies [Eh]
    ---------------------

    Doubly Occupied:

       1A    -20.560738     2A    -20.558527     3A    -20.544471
       4A    -20.538827     5A    -20.535559     6A    -20.510197
       7A     -1.345338     8A     -1.336813     9A     -1.326926
      10A     -1.317100    11A     -1.310087    12A     -1.298430
      13A     -0.721016    14A     -0.715365    15A     -0.699757
      16A     -0.689884    17A     -0.672198    18A     -0.667323
      19A     -0.585629    20A     -0.562150    21A     -0.556708
      22A     -0.546944    23A     -0.543881    24A     -0.522265
      25A     -0.508034    26A     -0.497788    27A     -0.487292
      28A     -0.476038    29A     -0.471961    30A     -0.452376

  @DF-RHF Final Energy:  -456.33004090707368

   => Energetics <=

    Nuclear Repulsion Energy =            269.4771181229950798
    One-Electron Energy =               -1168.4950638223824626
    Two-Electron Energy =                 442.6879047923137023
    Total Energy =                       -456.3300409070736805
 Dipole X            :         19.0713102          -20.1205037           -1.0491934
 Dipole Y            :          8.5675393           -8.4984215            0.0691177
 Dipole Z            :          5.3265734           -7.7333810           -2.4068077
 Magnitude           :                                                    2.6264629

    SAPT Results
  --------------------------------------------------------------------------------------------------------
    Electrostatics               -118.76105589 [mEh]     -74.52368769 [kcal/mol]    -311.80710928 [kJ/mol]
      Elst10,r                   -123.97720737 [mEh]     -77.79687216 [kcal/mol]    -325.50211312 [kJ/mol]
      Elst12,r                      5.21615148 [mEh]       3.27318447 [kcal/mol]      13.69500384 [kJ/mol]

    Exchange                       36.01787153 [mEh]      22.60155561 [kcal/mol]      94.56490867 [kJ/mol]
      Exch10                       31.36447668 [mEh]      19.68150626 [kcal/mol]      82.34742219 [kJ/mol]
      Exch10(S^2)                  31.33395983 [mEh]      19.66235665 [kcal/mol]      82.26730020 [kJ/mol]
      Exch11(S^2)                  -0.77360763 [mEh]      -0.48544611 [kcal/mol]      -2.03110654 [kJ/mol]
      Exch12(S^2)                   5.42700247 [mEh]       3.40549546 [kcal/mol]      14.24859302 [kJ/mol]

    Induction                     -42.52295913 [mEh]     -26.68355971 [kcal/mol]    -111.64401382 [kJ/mol]
      Ind20,r                     -66.64284913 [mEh]     -41.81901919 [kcal/mol]    -174.97077628 [kJ/mol]
      Ind22                       -11.41358011 [mEh]      -7.16212965 [kcal/mol]     -29.96635044 [kJ/mol]
      Exch-Ind20,r                 28.72502633 [mEh]      18.02522616 [kcal/mol]      75.41754624 [kJ/mol]
      Exch-Ind22                    4.91958842 [mEh]       3.08708834 [kcal/mol]      12.91637763 [kJ/mol]
      delta HF,r (2)                1.88885535 [mEh]       1.18527463 [kcal/mol]       4.95918904 [kJ/mol]

    Dispersion                     -3.55820470 [mEh]      -2.23280716 [kcal/mol]      -9.34206516 [kJ/mol]
      Disp20                       -3.45161631 [mEh]      -2.16592193 [kcal/mol]      -9.06221737 [kJ/mol]
      Disp21                       -0.09958197 [mEh]      -0.06248863 [kcal/mol]      -0.26145243 [kJ/mol]
      Disp22 (SDQ)                 -0.23823275 [mEh]      -0.14949331 [kcal/mol]      -0.62547999 [kJ/mol]
      Disp22 (T)                   -0.31555942 [mEh]      -0.19801653 [kcal/mol]      -0.82850116 [kJ/mol]
      Est. Disp22 (T)              -0.35252736 [mEh]      -0.22121426 [kcal/mol]      -0.92556046 [kJ/mol]
      Exch-Disp20                   0.58375368 [mEh]       0.36631097 [kcal/mol]       1.53264509 [kJ/mol]

  Total HF                       -128.64169814 [mEh]     -80.72388431 [kcal/mol]    -337.74873193 [kJ/mol]
  Total SAPT0                    -131.50956076 [mEh]     -82.52349527 [kcal/mol]    -345.27830421 [kJ/mol]
  Total SAPT2                    -128.13400612 [mEh]     -80.40530275 [kcal/mol]    -336.41578672 [kJ/mol]
  Total SAPT2+                   -128.82434820 [mEh]     -80.83849895 [kcal/mol]    -338.22827960 [kJ/mol]

  Special recipe for scaled SAPT0 (see Manual):
    Electrostatics sSAPT0        -123.97720737 [mEh]     -77.79687216 [kcal/mol]    -325.50211312 [kJ/mol]
    Exchange sSAPT0                31.36447668 [mEh]      19.68150626 [kcal/mol]      82.34742219 [kJ/mol]
    Induction sSAPT0              -35.94495782 [mEh]     -22.55580157 [kcal/mol]     -94.37347377 [kJ/mol]
    Dispersion sSAPT0              -2.86615537 [mEh]      -1.79853965 [kcal/mol]      -7.52508989 [kJ/mol]
  Total sSAPT0                   -131.42384388 [mEh]     -82.46970712 [kcal/mol]    -345.05325458 [kJ/mol]
  --------------------------------------------------------------------------------------------------------

*** Psi4 exiting successfully. Buy a developer a beer!
