                               Psi4 1.9 release

  ==> Input File <==

--------------------------------------------------------------------------
MEMORY 60 GB

molecule dimer {
1 1
Na     0.000000     0.000000     0.000000
--
0 1
O     -1.453265    -0.927157     1.825285
H     -2.100322    -0.255926     1.972817
H     -1.935961    -1.746795     1.593913
O      0.533351     1.207339     2.078428
H      0.369434     2.123890     2.057849
H      1.328925     0.987573     2.532613
O      1.651761    -1.445261     0.090473
H      2.214791    -1.702771     0.905964
H      1.533721    -2.215695    -0.565653
O     -2.231746     0.829196    -0.427680
H     -2.770376     0.788932    -1.214090
H     -2.790229     0.419292     0.320234
O      0.777575     1.636496    -1.467094
H      0.243066     2.358069    -1.870836
H      1.727867     1.770498    -1.676592

units ang
no_reorient
no_com
symmetry c1
}

set {
basis        aug-cc-pVTZ
scf_type     df
}

energy("sapt2+")
--------------------------------------------------------------------------

  //              Dimer HF             //
    Molecular point group: c1
  Charge       = 1
  Multiplicity = 1
  Basis Set: AUG-CC-PVTZ
    Blend: AUG-CC-PVTZ
  Basis Set: (AUG-CC-PVTZ AUX)
    Blend: AUG-CC-PVTZ-JKFIT + DEF2-UNIVERSAL-JKFIT
  @DF-RHF Final Energy:  -542.07359012630548
    Total Energy =                       -542.0735901263054757
 Dipole X            :         14.6338775          -15.0378282           -0.4039507
 Dipole Y            :        -24.3903978           24.4378835            0.0474856
 Dipole Z            :        -39.3535979           39.4036527            0.0500548
 Magnitude           :                                                    0.4098006
  //            Monomer A HF           //
    Molecular point group: c1
  Multiplicity = 1
  Basis Set: AUG-CC-PVTZ
    Blend: AUG-CC-PVTZ
  Basis Set: (AUG-CC-PVTZ AUX)
    Blend: AUG-CC-PVTZ-JKFIT + DEF2-UNIVERSAL-JKFIT
  @DF-RHF Final Energy:  -161.67609155051827
    Total Energy =                       -161.6760915505182652
  //            Monomer B HF           //
    Molecular point group: c1

    Geometry (in Angstrom), charge = 0, multiplicity = 1:

       Center              X                  Y                   Z               Mass
    ------------   -----------------  -----------------  -----------------  -----------------
      Gh(NA)          0.000000000000     0.000000000000     0.000000000000    22.989769282000
         O           -1.453265000000    -0.927157000000     1.825285000000    15.994914619570
         H           -2.100322000000    -0.255926000000     1.972817000000     1.007825032230
         H           -1.935961000000    -1.746795000000     1.593913000000     1.007825032230
         O            0.533351000000     1.207339000000     2.078428000000    15.994914619570
         H            0.369434000000     2.123890000000     2.057849000000     1.007825032230
         H            1.328925000000     0.987573000000     2.532613000000     1.007825032230
         O            1.651761000000    -1.445261000000     0.090473000000    15.994914619570
         H            2.214791000000    -1.702771000000     0.905964000000     1.007825032230
         H            1.533721000000    -2.215695000000    -0.565653000000     1.007825032230
         O           -2.231746000000     0.829196000000    -0.427680000000    15.994914619570
         H           -2.770376000000     0.788932000000    -1.214090000000     1.007825032230
         H           -2.790229000000     0.419292000000     0.320234000000     1.007825032230
         O            0.777575000000     1.636496000000    -1.467094000000    15.994914619570
         H            0.243066000000     2.358069000000    -1.870836000000     1.007825032230
         H            1.727867000000     1.770498000000    -1.676592000000     1.007825032230

  Charge       = 0
  Multiplicity = 1
  Basis Set: AUG-CC-PVTZ
    Blend: AUG-CC-PVTZ
  Basis Set: (AUG-CC-PVTZ AUX)
    Blend: AUG-CC-PVTZ-JKFIT + DEF2-UNIVERSAL-JKFIT

    Orbital Energies [Eh]
    ---------------------

    Doubly Occupied:

       1A    -20.548420     2A    -20.542779     3A    -20.538053
       4A    -20.533890     5A    -20.519291     6A     -1.324725
       7A     -1.318468     8A     -1.314604     9A     -1.301139
      10A     -1.286527    11A     -0.706113    12A     -0.700570
      13A     -0.678405    14A     -0.676398    15A     -0.666307
      16A     -0.558765    17A     -0.547004    18A     -0.531809
      19A     -0.523215    20A     -0.521069    21A     -0.491245
      22A     -0.474523    23A     -0.471718    24A     -0.469727
      25A     -0.465151

  @DF-RHF Final Energy:  -380.25193351225550

   => Energetics <=

    Nuclear Repulsion Energy =            187.8008835520589059
    One-Electron Energy =                -900.6857919695700048
    Two-Electron Energy =                 332.6329749052555371
    Total Energy =                       -380.2519335122555049
 Dipole X            :         14.6622573          -15.0378282           -0.3755710
 Dipole Y            :        -24.4900967           24.4378835           -0.0522133
 Dipole Z            :        -39.5327925           39.4036527           -0.1291399
 Magnitude           :                                                    0.4005707

    SAPT Results
  --------------------------------------------------------------------------------------------------------
    Electrostatics               -136.46621767 [mEh]     -85.63384444 [kcal/mol]    -358.29200513 [kJ/mol]
      Elst10,r                   -145.17849992 [mEh]     -91.10088409 [kcal/mol]    -381.16609904 [kJ/mol]
      Elst12,r                      8.71228225 [mEh]       5.46703965 [kcal/mol]      22.87409390 [kJ/mol]

    Exchange                       37.03233073 [mEh]      23.23813837 [kcal/mol]      97.22837093 [kJ/mol]
      Exch10                       33.37048161 [mEh]      20.94029335 [kcal/mol]      87.61418740 [kJ/mol]
      Exch10(S^2)                  33.32603644 [mEh]      20.91240359 [kcal/mol]      87.49749661 [kJ/mol]
      Exch11(S^2)                  -0.69114998 [mEh]      -0.43370316 [kcal/mol]      -1.81461402 [kJ/mol]
      Exch12(S^2)                   4.35299909 [mEh]       2.73154817 [kcal/mol]      11.42879755 [kJ/mol]

    Induction                     -38.98295836 [mEh]     -24.46217569 [kcal/mol]    -102.34974307 [kJ/mol]
      Ind20,r                     -65.30592530 [mEh]     -40.98008682 [kcal/mol]    -171.46068326 [kJ/mol]
      Ind22                        -9.47056483 [mEh]      -5.94286916 [kcal/mol]     -24.86496454 [kJ/mol]
      Exch-Ind20,r                 29.26973324 [mEh]      18.36703490 [kcal/mol]      76.84767402 [kJ/mol]
      Exch-Ind22                    4.24465169 [mEh]       2.66355915 [kcal/mol]      11.14433148 [kJ/mol]
      delta HF,r (2)                2.27914685 [mEh]       1.43018624 [kcal/mol]       5.98389923 [kJ/mol]

    Dispersion                     -3.09402614 [mEh]      -1.94153072 [kcal/mol]      -8.12336452 [kJ/mol]
      Disp20                       -3.09007701 [mEh]      -1.93905260 [kcal/mol]      -8.11299606 [kJ/mol]
      Disp21                       -0.07477484 [mEh]      -0.04692192 [kcal/mol]      -0.19632131 [kJ/mol]
      Disp22 (SDQ)                 -0.19365627 [mEh]      -0.12152115 [kcal/mol]      -0.50844447 [kJ/mol]
      Disp22 (T)                   -0.26131155 [mEh]      -0.16397548 [kcal/mol]      -0.68607339 [kJ/mol]
      Est. Disp22 (T)              -0.30169032 [mEh]      -0.18931353 [kcal/mol]      -0.79208783 [kJ/mol]
      Exch-Disp20                   0.56617229 [mEh]       0.35527848 [kcal/mol]       1.48648515 [kJ/mol]

  Total HF                       -145.56506353 [mEh]     -91.34345642 [kcal/mol]    -382.18102165 [kJ/mol]
  Total SAPT0                    -148.08896824 [mEh]     -92.92723053 [kcal/mol]    -388.80753256 [kJ/mol]
  Total SAPT2                    -140.94075002 [mEh]     -88.44165588 [kcal/mol]    -370.03988819 [kJ/mol]
  Total SAPT2+                   -141.51087145 [mEh]     -88.79941248 [kcal/mol]    -371.53674180 [kJ/mol]

  Special recipe for scaled SAPT0 (see Manual):
    Electrostatics sSAPT0        -145.17849992 [mEh]     -91.10088409 [kcal/mol]    -381.16609904 [kJ/mol]
    Exchange sSAPT0                33.37048161 [mEh]      20.94029335 [kcal/mol]      87.61418740 [kJ/mol]
    Induction sSAPT0              -33.63978248 [mEh]     -21.10928220 [kcal/mol]     -88.32123673 [kJ/mol]
    Dispersion sSAPT0              -2.52163647 [mEh]      -1.58235077 [kcal/mol]      -6.62055563 [kJ/mol]
  Total sSAPT0                   -147.96943726 [mEh]     -92.85222371 [kcal/mol]    -388.49370400 [kJ/mol]
  --------------------------------------------------------------------------------------------------------

*** Psi4 exiting successfully. Buy a developer a beer!
