                               Psi4 1.9 release

  ==> Input File <==

--------------------------------------------------------------------------
MEMORY 60 GB

molecule dimer {
1 1
Na     0.000000     0.000000     0.000000
--
0 1
O     -1.280774    -0.759773     2.066537
H     -1.536429    -0.091676     2.765012
H     -1.901665    -1.511168     1.950498
O     -0.717471     2.091250    -0.901495
H      0.059317     2.629287    -1.164866
H     -1.476620     2.438268    -1.368779
O     -1.822223    -1.577676    -0.958332
H     -1.691050    -2.150752    -1.657492
H     -2.466734    -0.986478    -1.244925
O      1.591137     0.542267     1.515629
H      1.976809    -0.291838     1.794945
H      2.435743     1.172111     1.550722
O      0.916176    -2.475189     0.174402
H      1.088176    -2.332722     1.102282
H      0.002816    -2.742338     0.107943
O      1.503194     0.599374    -1.995198
H      1.887717    -0.218723    -2.491432
H      1.765947     1.338805    -2.568431

units ang
no_reorient
no_com
symmetry c1
}

set {
basis        aug-cc-pVTZ
scf_type     df
}

energy("sapt2+")
--------------------------------------------------------------------------

  //              Dimer HF             //
    Molecular point group: c1
  Charge       = 1
  Multiplicity = 1
  Basis Set: AUG-CC-PVTZ
    Blend: AUG-CC-PVTZ
  Basis Set: (AUG-CC-PVTZ AUX)
    Blend: AUG-CC-PVTZ-JKFIT + DEF2-UNIVERSAL-JKFIT
  @DF-RHF Final Energy:  -618.14050089131422
    Total Energy =                       -618.1405008913142183
 Dipole X            :         -3.3876105            3.1451449           -0.2424656
 Dipole Y            :         29.3566101          -29.0738144            0.2827957
 Dipole Z            :          3.0742969           -3.8024672           -0.7281703
 Magnitude           :                                                    0.8179212
  //            Monomer A HF           //
    Molecular point group: c1
  Multiplicity = 1
  Basis Set: AUG-CC-PVTZ
    Blend: AUG-CC-PVTZ
  Basis Set: (AUG-CC-PVTZ AUX)
    Blend: AUG-CC-PVTZ-JKFIT + DEF2-UNIVERSAL-JKFIT
  @DF-RHF Final Energy:  -161.67609335012258
    Total Energy =                       -161.6760933501225850
  //            Monomer B HF           //
    Molecular point group: c1

    Geometry (in Angstrom), charge = 0, multiplicity = 1:

       Center              X                  Y                   Z               Mass
    ------------   -----------------  -----------------  -----------------  -----------------
      Gh(NA)          0.000000000000     0.000000000000     0.000000000000    22.989769282000
         O           -1.280774000000    -0.759773000000     2.066537000000    15.994914619570
         H           -1.536429000000    -0.091676000000     2.765012000000     1.007825032230
         H           -1.901665000000    -1.511168000000     1.950498000000     1.007825032230
         O           -0.717471000000     2.091250000000    -0.901495000000    15.994914619570
         H            0.059317000000     2.629287000000    -1.164866000000     1.007825032230
         H           -1.476620000000     2.438268000000    -1.368779000000     1.007825032230
         O           -1.822223000000    -1.577676000000    -0.958332000000    15.994914619570
         H           -1.691050000000    -2.150752000000    -1.657492000000     1.007825032230
         H           -2.466734000000    -0.986478000000    -1.244925000000     1.007825032230
         O            1.591137000000     0.542267000000     1.515629000000    15.994914619570
         H            1.976809000000    -0.291838000000     1.794945000000     1.007825032230
         H            2.435743000000     1.172111000000     1.550722000000     1.007825032230
         O            0.916176000000    -2.475189000000     0.174402000000    15.994914619570
         H            1.088176000000    -2.332722000000     1.102282000000     1.007825032230
         H            0.002816000000    -2.742338000000     0.107943000000     1.007825032230
         O            1.503194000000     0.599374000000    -1.995198000000    15.994914619570
         H            1.887717000000    -0.218723000000    -2.491432000000     1.007825032230
         H            1.765947000000     1.338805000000    -2.568431000000     1.007825032230

  Charge       = 0
  Multiplicity = 1
  Basis Set: AUG-CC-PVTZ
    Blend: AUG-CC-PVTZ
  Basis Set: (AUG-CC-PVTZ AUX)
    Blend: AUG-CC-PVTZ-JKFIT + DEF2-UNIVERSAL-JKFIT

    Orbital Energies [Eh]
    ---------------------

    Doubly Occupied:

       1A    -20.546935     2A    -20.542503     3A    -20.538842
       4A    -20.536025     5A    -20.533404     6A    -20.524406
       7A     -1.359131     8A     -1.313714     9A     -1.312718
      10A     -1.305113    11A     -1.298884    12A     -1.294729
      13A     -0.727916    14A     -0.688196    15A     -0.684996
      16A     -0.684549    17A     -0.662067    18A     -0.647195
      19A     -0.576454    20A     -0.551473    21A     -0.544849
      22A     -0.541360    23A     -0.537628    24A     -0.521576
      25A     -0.497473    26A     -0.484430    27A     -0.472490
      28A     -0.471647    29A     -0.466792    30A     -0.463372

  @DF-RHF Final Energy:  -456.31395330169511

   => Energetics <=

    Nuclear Repulsion Energy =            262.4889395225793578
    One-Electron Energy =               -1154.9440395935869219
    Two-Electron Energy =                 436.1411467693124564
    Total Energy =                       -456.3139533016951077
 Dipole X            :         -3.4724335            3.1451449           -0.3272886
 Dipole Y            :         29.4072990          -29.0738144            0.3334847
 Dipole Z            :          3.0826353           -3.8024672           -0.7198319
 Magnitude           :                                                    0.8581887

    SAPT Results
  --------------------------------------------------------------------------------------------------------
    Electrostatics               -131.53888763 [mEh]     -82.54189816 [kcal/mol]    -345.35530189 [kJ/mol]
      Elst10,r                   -140.35180997 [mEh]     -88.07209042 [kcal/mol]    -368.49362631 [kJ/mol]
      Elst12,r                      8.81292234 [mEh]       5.53019226 [kcal/mol]      23.13832441 [kJ/mol]

    Exchange                       28.05394528 [mEh]      17.60411644 [kcal/mol]      73.65562318 [kJ/mol]
      Exch10                       24.86148387 [mEh]      15.60081666 [kcal/mol]      65.27381691 [kJ/mol]
      Exch10(S^2)                  24.83782012 [mEh]      15.58596743 [kcal/mol]      65.21168774 [kJ/mol]
      Exch11(S^2)                  -0.55741100 [mEh]      -0.34978068 [kcal/mol]      -1.46348238 [kJ/mol]
      Exch12(S^2)                   3.74987241 [mEh]       2.35308046 [kcal/mol]       9.84528865 [kJ/mol]

    Induction                     -40.44868274 [mEh]     -25.38193162 [kcal/mol]    -106.19800191 [kJ/mol]
      Ind20,r                     -58.49990628 [mEh]     -36.70924541 [kcal/mol]    -153.59148278 [kJ/mol]
      Ind22                        -8.78423410 [mEh]      -5.51219012 [kcal/mol]     -23.06300346 [kJ/mol]
      Exch-Ind20,r                 21.97327359 [mEh]      13.78843735 [kcal/mol]      57.69082186 [kJ/mol]
      Exch-Ind22                    3.29946476 [mEh]       2.07044540 [kcal/mol]       8.66274353 [kJ/mol]
      delta HF,r (2)                1.56271929 [mEh]       0.98062116 [kcal/mol]       4.10291894 [kJ/mol]

    Dispersion                     -2.99526173 [mEh]      -1.87955511 [kcal/mol]      -7.86405859 [kJ/mol]
      Disp20                       -2.87982372 [mEh]      -1.80711667 [kcal/mol]      -7.56097615 [kJ/mol]
      Disp21                       -0.07018760 [mEh]      -0.04404338 [kcal/mol]      -0.18427751 [kJ/mol]
      Disp22 (SDQ)                 -0.19193872 [mEh]      -0.12044337 [kcal/mol]      -0.50393504 [kJ/mol]
      Disp22 (T)                   -0.26094304 [mEh]      -0.16374423 [kcal/mol]      -0.68510586 [kJ/mol]
      Est. Disp22 (T)              -0.29318986 [mEh]      -0.18397941 [kcal/mol]      -0.76976986 [kJ/mol]
      Exch-Disp20                   0.43987817 [mEh]       0.27602772 [kcal/mol]       1.15489996 [kJ/mol]

  Total HF                       -150.45423950 [mEh]     -94.41146065 [kcal/mol]    -395.01755138 [kJ/mol]
  Total SAPT0                    -152.89418506 [mEh]     -95.94254961 [kcal/mol]    -401.42362756 [kJ/mol]
  Total SAPT2                    -146.37357065 [mEh]     -91.85080230 [kcal/mol]    -384.30375680 [kJ/mol]
  Total SAPT2+                   -146.92888683 [mEh]     -92.19926845 [kcal/mol]    -385.76173921 [kJ/mol]

  Special recipe for scaled SAPT0 (see Manual):
    Electrostatics sSAPT0        -140.35180997 [mEh]     -88.07209042 [kcal/mol]    -368.49362631 [kJ/mol]
    Exchange sSAPT0                24.86148387 [mEh]      15.60081666 [kcal/mol]      65.27381691 [kJ/mol]
    Induction sSAPT0              -34.90104971 [mEh]     -21.90073934 [kcal/mol]     -91.63269340 [kJ/mol]
    Dispersion sSAPT0              -2.43868710 [mEh]      -1.53029926 [kcal/mol]      -6.40277211 [kJ/mol]
  Total sSAPT0                   -152.83006292 [mEh]     -95.90231236 [kcal/mol]    -401.25527490 [kJ/mol]
  --------------------------------------------------------------------------------------------------------

*** Psi4 exiting successfully. Buy a developer a beer!
