                               Psi4 1.9 release

  ==> Input File <==

--------------------------------------------------------------------------
MEMORY 60 GB

molecule dimer {
1 1
Na     0.000000     0.000000     0.000000
--
0 1
O     -0.177744    -2.178850    -0.553539
H     -0.869295    -2.621709    -0.135058
H     -0.313895    -2.582009    -1.441257
O      2.093826     0.024601     0.755933
H      2.129969     0.591241     1.585698
H      3.029505     0.110000     0.406142
O      0.203324     2.325177     0.292567
H      0.391095     2.453879     1.209027
H     -0.303688     3.155131     0.044815
O      0.320390     0.773751    -2.164870
H      0.455080     1.775417    -2.130367
H      0.649183     0.464819    -3.037165
O     -1.390357     0.611765     2.061121
H     -1.634301     1.509377     2.361661
H     -2.142878     0.044850     2.278362

units ang
no_reorient
no_com
symmetry c1
}

set {
basis        aug-cc-pVTZ
scf_type     df
}

energy("sapt2+")
--------------------------------------------------------------------------

  //              Dimer HF             //
    Molecular point group: c1
  Charge       = 1
  Multiplicity = 1
  Basis Set: AUG-CC-PVTZ
    Blend: AUG-CC-PVTZ
  Basis Set: (AUG-CC-PVTZ AUX)
    Blend: AUG-CC-PVTZ-JKFIT + DEF2-UNIVERSAL-JKFIT
  @DF-RHF Final Energy:  -542.07701497123935
    Total Energy =                       -542.0770149712393504
 Dipole X            :        -18.8557734           18.4934022           -0.3623712
 Dipole Y            :        -31.5370967           32.7915633            1.2544666
 Dipole Z            :         -7.8394552            8.0720672            0.2326120
 Magnitude           :                                                    1.3263136
  //            Monomer A HF           //
    Molecular point group: c1
  Multiplicity = 1
  Basis Set: AUG-CC-PVTZ
    Blend: AUG-CC-PVTZ
  Basis Set: (AUG-CC-PVTZ AUX)
    Blend: AUG-CC-PVTZ-JKFIT + DEF2-UNIVERSAL-JKFIT
  @DF-RHF Final Energy:  -161.67609276409038
    Total Energy =                       -161.6760927640903844
  //            Monomer B HF           //
    Molecular point group: c1

    Geometry (in Angstrom), charge = 0, multiplicity = 1:

       Center              X                  Y                   Z               Mass
    ------------   -----------------  -----------------  -----------------  -----------------
      Gh(NA)          0.000000000000     0.000000000000     0.000000000000    22.989769282000
         O           -0.177744000000    -2.178850000000    -0.553539000000    15.994914619570
         H           -0.869295000000    -2.621709000000    -0.135058000000     1.007825032230
         H           -0.313895000000    -2.582009000000    -1.441257000000     1.007825032230
         O            2.093826000000     0.024601000000     0.755933000000    15.994914619570
         H            2.129969000000     0.591241000000     1.585698000000     1.007825032230
         H            3.029505000000     0.110000000000     0.406142000000     1.007825032230
         O            0.203324000000     2.325177000000     0.292567000000    15.994914619570
         H            0.391095000000     2.453879000000     1.209027000000     1.007825032230
         H           -0.303688000000     3.155131000000     0.044815000000     1.007825032230
         O            0.320390000000     0.773751000000    -2.164870000000    15.994914619570
         H            0.455080000000     1.775417000000    -2.130367000000     1.007825032230
         H            0.649183000000     0.464819000000    -3.037165000000     1.007825032230
         O           -1.390357000000     0.611765000000     2.061121000000    15.994914619570
         H           -1.634301000000     1.509377000000     2.361661000000     1.007825032230
         H           -2.142878000000     0.044850000000     2.278362000000     1.007825032230

  Charge       = 0
  Multiplicity = 1
  Basis Set: AUG-CC-PVTZ
    Blend: AUG-CC-PVTZ
  Basis Set: (AUG-CC-PVTZ AUX)
    Blend: AUG-CC-PVTZ-JKFIT + DEF2-UNIVERSAL-JKFIT

    Orbital Energies [Eh]
    ---------------------

    Doubly Occupied:

       1A    -20.551812     2A    -20.548426     3A    -20.533235
       4A    -20.530277     5A    -20.530002     6A     -1.330037
       7A     -1.324730     8A     -1.323325     9A     -1.289996
      10A     -1.288989    11A     -0.699427    12A     -0.686719
      13A     -0.664270    14A     -0.658746    15A     -0.644766
      16A     -0.563927    17A     -0.559141    18A     -0.557597
      19A     -0.532631    20A     -0.525982    21A     -0.497080
      22A     -0.480767    23A     -0.471830    24A     -0.464985
      25A     -0.459109

  @DF-RHF Final Energy:  -380.25375017727907

   => Energetics <=

    Nuclear Repulsion Energy =            188.9730681937915335
    One-Electron Energy =                -903.0180168082243881
    Two-Electron Energy =                 333.7911984371538097
    Total Energy =                       -380.2537501772790733
 Dipole X            :        -19.0100839           18.4934022           -0.5166817
 Dipole Y            :        -31.7463700           32.7915633            1.0451933
 Dipole Z            :         -7.8148436            8.0720672            0.2572236
 Magnitude           :                                                    1.1939652

    SAPT Results
  --------------------------------------------------------------------------------------------------------
    Electrostatics               -138.20135462 [mEh]     -86.72265931 [kcal/mol]    -362.84760656 [kJ/mol]
      Elst10,r                   -148.19530997 [mEh]     -92.99396098 [kcal/mol]    -389.08673272 [kJ/mol]
      Elst12,r                      9.99395535 [mEh]       6.27130166 [kcal/mol]      26.23912616 [kJ/mol]

    Exchange                       39.86697620 [mEh]      25.01690526 [kcal/mol]     104.67073159 [kJ/mol]
      Exch10                       36.21164598 [mEh]      22.72315091 [kcal/mol]      95.07366341 [kJ/mol]
      Exch10(S^2)                  36.16192048 [mEh]      22.69194769 [kcal/mol]      94.94310913 [kJ/mol]
      Exch11(S^2)                  -0.78115255 [mEh]      -0.49018062 [kcal/mol]      -2.05091573 [kJ/mol]
      Exch12(S^2)                   4.43648277 [mEh]       2.78393497 [kcal/mol]      11.64798391 [kJ/mol]

    Induction                     -40.40997870 [mEh]     -25.35764447 [kcal/mol]    -106.09638447 [kJ/mol]
      Ind20,r                     -67.98308545 [mEh]     -42.66003018 [kcal/mol]    -178.48956627 [kJ/mol]
      Ind22                        -9.47427191 [mEh]      -5.94519538 [kcal/mol]     -24.87469748 [kJ/mol]
      Exch-Ind20,r                 30.51515608 [mEh]      19.14854953 [kcal/mol]      80.11753125 [kJ/mol]
      Exch-Ind22                    4.25265909 [mEh]       2.66858387 [kcal/mol]      11.16535490 [kJ/mol]
      delta HF,r (2)                2.27956350 [mEh]       1.43044769 [kcal/mol]       5.98499313 [kJ/mol]

    Dispersion                     -3.36437505 [mEh]      -2.11117722 [kcal/mol]      -8.83316548 [kJ/mol]
      Disp20                       -3.40238790 [mEh]      -2.13503064 [kcal/mol]      -8.93296820 [kJ/mol]
      Disp21                       -0.05114354 [mEh]      -0.03209306 [kcal/mol]      -0.13427735 [kJ/mol]
      Disp22 (SDQ)                 -0.21010759 [mEh]      -0.13184450 [kcal/mol]      -0.55163740 [kJ/mol]
      Disp22 (T)                   -0.28580715 [mEh]      -0.17934669 [kcal/mol]      -0.75038656 [kJ/mol]
      Est. Disp22 (T)              -0.32942314 [mEh]      -0.20671614 [kcal/mol]      -0.86490035 [kJ/mol]
      Exch-Disp20                   0.62868713 [mEh]       0.39450713 [kcal/mol]       1.65061782 [kJ/mol]

  Total HF                       -147.17202987 [mEh]     -92.35184302 [kcal/mol]    -386.40011119 [kJ/mol]
  Total SAPT0                    -149.94573064 [mEh]     -94.09236653 [kcal/mol]    -393.68246157 [kJ/mol]
  Total SAPT2                    -141.51805790 [mEh]     -88.80392204 [kcal/mol]    -371.55560982 [kJ/mol]
  Total SAPT2+                   -142.10873217 [mEh]     -89.17457574 [kcal/mol]    -373.10642492 [kJ/mol]

  Special recipe for scaled SAPT0 (see Manual):
    Electrostatics sSAPT0        -148.19530997 [mEh]     -92.99396098 [kcal/mol]    -389.08673272 [kJ/mol]
    Exchange sSAPT0                36.21164598 [mEh]      22.72315091 [kcal/mol]      95.07366341 [kJ/mol]
    Induction sSAPT0              -35.06231044 [mEh]     -22.00193197 [kcal/mol]     -92.05608338 [kJ/mol]
    Dispersion sSAPT0              -2.77110372 [mEh]      -1.73889384 [kcal/mol]      -7.27553182 [kJ/mol]
  Total sSAPT0                   -149.81707816 [mEh]     -94.01163588 [kcal/mol]    -393.34468451 [kJ/mol]
  --------------------------------------------------------------------------------------------------------

*** Psi4 exiting successfully. Buy a developer a beer!
