                               Psi4 1.9 release

  ==> Input File <==

--------------------------------------------------------------------------
MEMORY 60 GB

molecule dimer {
1 1
Na     0.000000     0.000000     0.000000
--
0 1
O     -1.339451    -1.201724     1.367541
H     -2.235805    -0.821142     1.302148
H     -1.569153    -2.182228     1.427508
O      1.319402     1.894139     0.435760
H      1.823232     2.262470    -0.335659
H      1.739025     2.258973     1.197774
O      1.589395    -1.392547     1.045193
H      1.704872    -2.231908     0.499963
H      2.479783    -0.955865     0.973167
O     -1.214799     0.904461    -1.992201
H     -0.703953     1.278966    -2.714790
H     -2.095167     1.261371    -2.013025

units ang
no_reorient
no_com
symmetry c1
}

set {
basis        aug-cc-pVTZ
scf_type     df
}

energy("sapt2+")
--------------------------------------------------------------------------

  //              Dimer HF             //
    Molecular point group: c1
  Charge       = 1
  Multiplicity = 1
  Basis Set: AUG-CC-PVTZ
    Blend: AUG-CC-PVTZ
  Basis Set: (AUG-CC-PVTZ AUX)
    Blend: AUG-CC-PVTZ-JKFIT + DEF2-UNIVERSAL-JKFIT
  @DF-RHF Final Energy:  -466.01254235140556
    Total Energy =                       -466.0125423514055569
 Dipole X            :         -7.2093959            7.5196171            0.3102212
 Dipole Y            :         -4.3563280            4.7342723            0.3779443
 Dipole Z            :        -14.3742027           13.5822742           -0.7919285
 Magnitude           :                                                    0.9307147
  //            Monomer A HF           //
    Molecular point group: c1
  Multiplicity = 1
  Basis Set: AUG-CC-PVTZ
    Blend: AUG-CC-PVTZ
  Basis Set: (AUG-CC-PVTZ AUX)
    Blend: AUG-CC-PVTZ-JKFIT + DEF2-UNIVERSAL-JKFIT
  @DF-RHF Final Energy:  -161.67608412737945
    Total Energy =                       -161.6760841273794540
  //            Monomer B HF           //
    Molecular point group: c1

    Geometry (in Angstrom), charge = 0, multiplicity = 1:

       Center              X                  Y                   Z               Mass
    ------------   -----------------  -----------------  -----------------  -----------------
      Gh(NA)          0.000000000000     0.000000000000     0.000000000000    22.989769282000
         O           -1.339451000000    -1.201724000000     1.367541000000    15.994914619570
         H           -2.235805000000    -0.821142000000     1.302148000000     1.007825032230
         H           -1.569153000000    -2.182228000000     1.427508000000     1.007825032230
         O            1.319402000000     1.894139000000     0.435760000000    15.994914619570
         H            1.823232000000     2.262470000000    -0.335659000000     1.007825032230
         H            1.739025000000     2.258973000000     1.197774000000     1.007825032230
         O            1.589395000000    -1.392547000000     1.045193000000    15.994914619570
         H            1.704872000000    -2.231908000000     0.499963000000     1.007825032230
         H            2.479783000000    -0.955865000000     0.973167000000     1.007825032230
         O           -1.214799000000     0.904461000000    -1.992201000000    15.994914619570
         H           -0.703953000000     1.278966000000    -2.714790000000     1.007825032230
         H           -2.095167000000     1.261371000000    -2.013025000000     1.007825032230

  Charge       = 0
  Multiplicity = 1
  Basis Set: AUG-CC-PVTZ
    Blend: AUG-CC-PVTZ
  Basis Set: (AUG-CC-PVTZ AUX)
    Blend: AUG-CC-PVTZ-JKFIT + DEF2-UNIVERSAL-JKFIT

    Orbital Energies [Eh]
    ---------------------

    Doubly Occupied:

       1A    -20.548706     2A    -20.548109     3A    -20.540713
       4A    -20.540635     5A     -1.334558     6A     -1.328354
       7A     -1.305096     8A     -1.298277     9A     -0.711526
      10A     -0.693035    11A     -0.659768    12A     -0.654184
      13A     -0.561573    14A     -0.556833    15A     -0.555618
      16A     -0.533797    17A     -0.492553    18A     -0.489192
      19A     -0.475135    20A     -0.468856

  @DF-RHF Final Energy:  -304.21394578570653

   => Energetics <=

    Nuclear Repulsion Energy =            117.6280138612602428
    One-Electron Energy =                -655.0908743686082971
    Two-Electron Energy =                 233.2489147216415120
    Total Energy =                       -304.2139457857065281
 Dipole X            :         -7.2710400            7.5196171            0.2485771
 Dipole Y            :         -4.3488264            4.7342723            0.3854459
 Dipole Z            :        -14.4588634           13.5822742           -0.8765891
 Magnitude           :                                                    0.9893268

    SAPT Results
  --------------------------------------------------------------------------------------------------------
    Electrostatics               -115.49858226 [mEh]     -72.47645458 [kcal/mol]    -303.24148595 [kJ/mol]
      Elst10,r                   -122.23570407 [mEh]     -76.70406234 [kcal/mol]    -320.92979682 [kJ/mol]
      Elst12,r                      6.73712181 [mEh]       4.22760776 [kcal/mol]      17.68831087 [kJ/mol]

    Exchange                       31.53834552 [mEh]      19.79061060 [kcal/mol]      82.80391476 [kJ/mol]
      Exch10                       28.29289341 [mEh]      17.75405866 [kcal/mol]      74.28298143 [kJ/mol]
      Exch10(S^2)                  28.25198441 [mEh]      17.72838787 [kcal/mol]      74.17557484 [kJ/mol]
      Exch11(S^2)                  -0.50041653 [mEh]      -0.31401612 [kcal/mol]      -1.31384343 [kJ/mol]
      Exch12(S^2)                   3.74586864 [mEh]       2.35056806 [kcal/mol]       9.83477676 [kJ/mol]

    Induction                     -32.93934705 [mEh]     -20.66975233 [kcal/mol]     -86.48224376 [kJ/mol]
      Ind20,r                     -56.65478470 [mEh]     -35.55141413 [kcal/mol]    -148.74711674 [kJ/mol]
      Ind22                        -8.04650969 [mEh]      -5.04926106 [kcal/mol]     -21.12610828 [kJ/mol]
      Exch-Ind20,r                 25.88796524 [mEh]      16.24494344 [kcal/mol]      67.96884337 [kJ/mol]
      Exch-Ind22                    3.67679030 [mEh]       2.30722075 [kcal/mol]       9.65341161 [kJ/mol]
      delta HF,r (2)                2.19719180 [mEh]       1.37875867 [kcal/mol]       5.76872627 [kJ/mol]

    Dispersion                     -2.40196320 [mEh]      -1.50725467 [kcal/mol]      -6.30635352 [kJ/mol]
      Disp20                       -2.38543329 [mEh]      -1.49688199 [kcal/mol]      -6.26295424 [kJ/mol]
      Disp21                       -0.07432753 [mEh]      -0.04664123 [kcal/mol]      -0.19514690 [kJ/mol]
      Disp22 (SDQ)                 -0.14811253 [mEh]      -0.09294202 [kcal/mol]      -0.38886939 [kJ/mol]
      Disp22 (T)                   -0.19672045 [mEh]      -0.12344395 [kcal/mol]      -0.51648947 [kJ/mol]
      Est. Disp22 (T)              -0.22955274 [mEh]      -0.14404652 [kcal/mol]      -0.60269065 [kJ/mol]
      Exch-Disp20                   0.43546289 [mEh]       0.27325709 [kcal/mol]       1.14330767 [kJ/mol]

  Total HF                       -122.51243832 [mEh]     -76.87771570 [kcal/mol]    -321.65636249 [kJ/mol]
  Total SAPT0                    -124.46240872 [mEh]     -78.10134060 [kcal/mol]    -326.77600907 [kJ/mol]
  Total SAPT2                    -118.84955419 [mEh]     -74.57922121 [kcal/mol]    -312.03946153 [kJ/mol]
  Total SAPT2+                   -119.30154699 [mEh]     -74.86285097 [kcal/mol]    -313.22616847 [kJ/mol]

  Special recipe for scaled SAPT0 (see Manual):
    Electrostatics sSAPT0        -122.23570407 [mEh]     -76.70406234 [kcal/mol]    -320.92979682 [kJ/mol]
    Exchange sSAPT0                28.29289341 [mEh]      17.75405866 [kcal/mol]      74.28298143 [kJ/mol]
    Induction sSAPT0              -28.45700705 [mEh]     -17.85704152 [kcal/mol]     -74.71386173 [kJ/mol]
    Dispersion sSAPT0              -1.94807600 [mEh]      -1.22243615 [kcal/mol]      -5.11467284 [kJ/mol]
  Total sSAPT0                   -124.34789371 [mEh]     -78.02948135 [kcal/mol]    -326.47534996 [kJ/mol]
  --------------------------------------------------------------------------------------------------------

*** Psi4 exiting successfully. Buy a developer a beer!
