                               Psi4 1.9 release

  ==> Input File <==

--------------------------------------------------------------------------
MEMORY 60 GB

molecule dimer {
1 1
Na     0.000000     0.000000     0.000000
--
0 1
O      0.708023    -1.342751    -1.859325
H      0.651312    -1.530173    -2.824257
H      0.765287    -2.234127    -1.494177
O      1.966844     1.359311     0.168930
H      2.774677     1.014819     0.464956
H      2.154278     2.048941    -0.513915
O      1.251839    -1.361885     1.616700
H      1.002389    -2.318327     1.850238
H      2.110395    -1.505860     1.250054
O     -1.064373     1.917554    -1.138065
H     -1.512374     2.639764    -0.689674
H     -1.757728     1.278248    -1.399230
O     -2.229190    -0.753886     0.938174
H     -2.626923    -1.541755     0.554601
H     -2.610605     0.056120     0.627425

units ang
no_reorient
no_com
symmetry c1
}

set {
basis        aug-cc-pVTZ
scf_type     df
}

energy("sapt2+")
--------------------------------------------------------------------------

  //              Dimer HF             //
    Molecular point group: c1
  Charge       = 1
  Multiplicity = 1
  Basis Set: AUG-CC-PVTZ
    Blend: AUG-CC-PVTZ
  Basis Set: (AUG-CC-PVTZ AUX)
    Blend: AUG-CC-PVTZ-JKFIT + DEF2-UNIVERSAL-JKFIT
  @DF-RHF Final Energy:  -542.07988224798464
    Total Energy =                       -542.0798822479846422
 Dipole X            :        -11.5107822           11.3683127           -0.1424695
 Dipole Y            :          5.5846777           -6.7002243           -1.1155466
 Dipole Z            :          7.1046023           -8.2442458           -1.1396435
 Magnitude           :                                                    1.6011025
  //            Monomer A HF           //
    Molecular point group: c1
  Multiplicity = 1
  Basis Set: AUG-CC-PVTZ
    Blend: AUG-CC-PVTZ
  Basis Set: (AUG-CC-PVTZ AUX)
    Blend: AUG-CC-PVTZ-JKFIT + DEF2-UNIVERSAL-JKFIT
  @DF-RHF Final Energy:  -161.67609022332644
    Total Energy =                       -161.6760902233264687
  //            Monomer B HF           //
    Molecular point group: c1

    Geometry (in Angstrom), charge = 0, multiplicity = 1:

       Center              X                  Y                   Z               Mass
    ------------   -----------------  -----------------  -----------------  -----------------
      Gh(NA)          0.000000000000     0.000000000000     0.000000000000    22.989769282000
         O            0.708023000000    -1.342751000000    -1.859325000000    15.994914619570
         H            0.651312000000    -1.530173000000    -2.824257000000     1.007825032230
         H            0.765287000000    -2.234127000000    -1.494177000000     1.007825032230
         O            1.966844000000     1.359311000000     0.168930000000    15.994914619570
         H            2.774677000000     1.014819000000     0.464956000000     1.007825032230
         H            2.154278000000     2.048941000000    -0.513915000000     1.007825032230
         O            1.251839000000    -1.361885000000     1.616700000000    15.994914619570
         H            1.002389000000    -2.318327000000     1.850238000000     1.007825032230
         H            2.110395000000    -1.505860000000     1.250054000000     1.007825032230
         O           -1.064373000000     1.917554000000    -1.138065000000    15.994914619570
         H           -1.512374000000     2.639764000000    -0.689674000000     1.007825032230
         H           -1.757728000000     1.278248000000    -1.399230000000     1.007825032230
         O           -2.229190000000    -0.753886000000     0.938174000000    15.994914619570
         H           -2.626923000000    -1.541755000000     0.554601000000     1.007825032230
         H           -2.610605000000     0.056120000000     0.627425000000     1.007825032230

  Charge       = 0
  Multiplicity = 1
  Basis Set: AUG-CC-PVTZ
    Blend: AUG-CC-PVTZ
  Basis Set: (AUG-CC-PVTZ AUX)
    Blend: AUG-CC-PVTZ-JKFIT + DEF2-UNIVERSAL-JKFIT

    Orbital Energies [Eh]
    ---------------------

    Doubly Occupied:

       1A    -20.554115     2A    -20.548287     3A    -20.546909
       4A    -20.543948     5A    -20.527101     6A     -1.330157
       7A     -1.329082     8A     -1.325658     9A     -1.320418
      10A     -1.313300    11A     -0.718166    12A     -0.694525
      13A     -0.688242    14A     -0.684488    15A     -0.669566
      16A     -0.567625    17A     -0.561393    18A     -0.557321
      19A     -0.546794    20A     -0.534780    21A     -0.493602
      22A     -0.490496    23A     -0.484701    24A     -0.481992
      25A     -0.469478

  @DF-RHF Final Energy:  -380.27335810120576

   => Energetics <=

    Nuclear Repulsion Energy =            181.7480671783988271
    One-Electron Energy =                -888.0785564662264733
    Two-Electron Energy =                 326.0571311866218593
    Total Energy =                       -380.2733581012057584
 Dipole X            :        -11.5870903           11.3683127           -0.2187776
 Dipole Y            :          5.6590638           -6.7002243           -1.0411605
 Dipole Z            :          7.2009854           -8.2442458           -1.0432604
 Magnitude           :                                                    1.4900574

    SAPT Results
  --------------------------------------------------------------------------------------------------------
    Electrostatics               -116.13693636 [mEh]     -72.87702782 [kcal/mol]    -304.91748441 [kJ/mol]
      Elst10,r                   -122.61283239 [mEh]     -76.94071393 [kcal/mol]    -321.91994708 [kJ/mol]
      Elst12,r                      6.47589602 [mEh]       4.06368611 [kcal/mol]      17.00246267 [kJ/mol]

    Exchange                       26.95943820 [mEh]      16.91730288 [kcal/mol]      70.78199523 [kJ/mol]
      Exch10                       23.69572353 [mEh]      14.86929100 [kcal/mol]      62.21311356 [kJ/mol]
      Exch10(S^2)                  23.68079039 [mEh]      14.85992032 [kcal/mol]      62.17390661 [kJ/mol]
      Exch11(S^2)                  -0.49115854 [mEh]      -0.30820664 [kcal/mol]      -1.28953657 [kJ/mol]
      Exch12(S^2)                   3.75487320 [mEh]       2.35621851 [kcal/mol]       9.85841824 [kJ/mol]

    Induction                     -36.56671640 [mEh]     -22.94596096 [kcal/mol]     -96.00590067 [kJ/mol]
      Ind20,r                     -55.05005282 [mEh]     -34.54442968 [kcal/mol]    -144.53389376 [kJ/mol]
      Ind22                        -8.36617326 [mEh]      -5.24985298 [kcal/mol]     -21.96538487 [kJ/mol]
      Exch-Ind20,r                 21.82131702 [mEh]      13.69308316 [kcal/mol]      57.29185995 [kJ/mol]
      Exch-Ind22                    3.31627146 [mEh]       2.08099176 [kcal/mol]       8.70686952 [kJ/mol]
      delta HF,r (2)                1.71192120 [mEh]       1.07424677 [kcal/mol]       4.49464849 [kJ/mol]

    Dispersion                     -2.65290287 [mEh]      -1.66472169 [kcal/mol]      -6.96519554 [kJ/mol]
      Disp20                       -2.54342498 [mEh]      -1.59602327 [kcal/mol]      -6.67776135 [kJ/mol]
      Disp21                       -0.09061484 [mEh]      -0.05686167 [kcal/mol]      -0.23790922 [kJ/mol]
      Disp22 (SDQ)                 -0.16504832 [mEh]      -0.10356939 [kcal/mol]      -0.43333432 [kJ/mol]
      Disp22 (T)                   -0.22060967 [mEh]      -0.13843466 [kcal/mol]      -0.57921062 [kJ/mol]
      Est. Disp22 (T)              -0.25227407 [mEh]      -0.15830437 [kcal/mol]      -0.66234547 [kJ/mol]
      Exch-Disp20                   0.39845933 [mEh]       0.25003700 [kcal/mol]       1.04615482 [kJ/mol]

  Total HF                       -130.43392345 [mEh]     -81.84852267 [kcal/mol]    -342.45421884 [kJ/mol]
  Total SAPT0                    -132.57888910 [mEh]     -83.19450893 [kcal/mol]    -348.08582538 [kJ/mol]
  Total SAPT2                    -127.88918021 [mEh]     -80.25167218 [kcal/mol]    -335.77299639 [kJ/mol]
  Total SAPT2+                   -128.39711744 [mEh]     -80.57040760 [kcal/mol]    -337.10658539 [kJ/mol]

  Special recipe for scaled SAPT0 (see Manual):
    Electrostatics sSAPT0        -122.61283239 [mEh]     -76.94071393 [kcal/mol]    -321.91994708 [kJ/mol]
    Exchange sSAPT0                23.69572353 [mEh]      14.86929100 [kcal/mol]      62.21311356 [kJ/mol]
    Induction sSAPT0              -31.47550690 [mEh]     -19.75117877 [kcal/mol]     -82.63893199 [kJ/mol]
    Dispersion sSAPT0              -2.14421137 [mEh]      -1.34551295 [kcal/mol]      -5.62962617 [kJ/mol]
  Total sSAPT0                   -132.53682713 [mEh]     -83.16811465 [kcal/mol]    -347.97539168 [kJ/mol]
  --------------------------------------------------------------------------------------------------------

*** Psi4 exiting successfully. Buy a developer a beer!
