                               Psi4 1.9 release

  ==> Input File <==

--------------------------------------------------------------------------
MEMORY 60 GB

molecule dimer {
1 1
Na     0.000000     0.000000     0.000000
--
0 1
O     -1.724880    -1.271601     1.213900
H     -2.325128    -0.571095     1.379831
H     -2.168723    -1.746989     0.502293
O     -0.039054    -1.936295    -1.391128
H      0.391505    -2.720753    -1.100880
H      0.371378    -1.668308    -2.222008
O     -1.221731     2.060268    -0.618102
H     -2.197672     1.923654    -0.578974
H     -1.034113     2.478922     0.254269
O      2.170696    -1.419467     0.263194
H      2.386052    -0.539926    -0.129718
H      2.614810    -1.412889     1.118737
O      1.577504     0.614945    -1.358706
H      1.342517     0.541305    -2.293175
H      1.634371     1.604489    -1.284154
O      0.804081     0.832483     2.115286
H      0.484562     0.652400     2.977864
H      1.717967     0.859279     2.323688

units ang
no_reorient
no_com
symmetry c1
}

set {
basis        aug-cc-pVTZ
scf_type     df
}

energy("sapt2+")
--------------------------------------------------------------------------

  //              Dimer HF             //
    Molecular point group: c1
  Charge       = 1
  Multiplicity = 1
  Basis Set: AUG-CC-PVTZ
    Blend: AUG-CC-PVTZ
  Basis Set: (AUG-CC-PVTZ AUX)
    Blend: AUG-CC-PVTZ-JKFIT + DEF2-UNIVERSAL-JKFIT
  @DF-RHF Final Energy:  -618.14240020352327
    Total Energy =                       -618.1424002035232661
 Dipole X            :        -29.6228460           29.7640444            0.1411984
 Dipole Y            :         19.1517840          -18.0605793            1.0912047
 Dipole Z            :         -4.9004037            5.1841329            0.2837293
 Magnitude           :                                                    1.1362953
  //            Monomer A HF           //
    Molecular point group: c1
  Multiplicity = 1
  Basis Set: AUG-CC-PVTZ
    Blend: AUG-CC-PVTZ
  Basis Set: (AUG-CC-PVTZ AUX)
    Blend: AUG-CC-PVTZ-JKFIT + DEF2-UNIVERSAL-JKFIT
  @DF-RHF Final Energy:  -161.67609831469784
    Total Energy =                       -161.6760983146978674
  //            Monomer B HF           //
    Molecular point group: c1

    Geometry (in Angstrom), charge = 0, multiplicity = 1:

       Center              X                  Y                   Z               Mass
    ------------   -----------------  -----------------  -----------------  -----------------
      Gh(NA)          0.000000000000     0.000000000000     0.000000000000    22.989769282000
         O           -1.724880000000    -1.271601000000     1.213900000000    15.994914619570
         H           -2.325128000000    -0.571095000000     1.379831000000     1.007825032230
         H           -2.168723000000    -1.746989000000     0.502293000000     1.007825032230
         O           -0.039054000000    -1.936295000000    -1.391128000000    15.994914619570
         H            0.391505000000    -2.720753000000    -1.100880000000     1.007825032230
         H            0.371378000000    -1.668308000000    -2.222008000000     1.007825032230
         O           -1.221731000000     2.060268000000    -0.618102000000    15.994914619570
         H           -2.197672000000     1.923654000000    -0.578974000000     1.007825032230
         H           -1.034113000000     2.478922000000     0.254269000000     1.007825032230
         O            2.170696000000    -1.419467000000     0.263194000000    15.994914619570
         H            2.386052000000    -0.539926000000    -0.129718000000     1.007825032230
         H            2.614810000000    -1.412889000000     1.118737000000     1.007825032230
         O            1.577504000000     0.614945000000    -1.358706000000    15.994914619570
         H            1.342517000000     0.541305000000    -2.293175000000     1.007825032230
         H            1.634371000000     1.604489000000    -1.284154000000     1.007825032230
         O            0.804081000000     0.832483000000     2.115286000000    15.994914619570
         H            0.484562000000     0.652400000000     2.977864000000     1.007825032230
         H            1.717967000000     0.859279000000     2.323688000000     1.007825032230

  Charge       = 0
  Multiplicity = 1
  Basis Set: AUG-CC-PVTZ
    Blend: AUG-CC-PVTZ
  Basis Set: (AUG-CC-PVTZ AUX)
    Blend: AUG-CC-PVTZ-JKFIT + DEF2-UNIVERSAL-JKFIT

    Orbital Energies [Eh]
    ---------------------

    Doubly Occupied:

       1A    -20.560736     2A    -20.556338     3A    -20.550889
       4A    -20.530292     5A    -20.518978     6A    -20.512288
       7A     -1.354698     8A     -1.338694     9A     -1.324570
      10A     -1.322875    11A     -1.309821    12A     -1.290384
      13A     -0.700315    14A     -0.692578    15A     -0.682501
      16A     -0.681075    17A     -0.677555    18A     -0.670268
      19A     -0.586686    20A     -0.575575    21A     -0.568519
      22A     -0.554658    23A     -0.538262    24A     -0.531764
      25A     -0.501851    26A     -0.498370    27A     -0.490466
      28A     -0.472823    29A     -0.461952    30A     -0.449285

  @DF-RHF Final Energy:  -456.33403505263720

   => Energetics <=

    Nuclear Repulsion Energy =            272.8946092971876283
    One-Electron Energy =               -1175.4471526888910375
    Two-Electron Energy =                 446.2185083390662612
    Total Energy =                       -456.3340350526372049
 Dipole X            :        -29.7676116           29.7640444           -0.0035672
 Dipole Y            :         19.2197291          -18.0605793            1.1591497
 Dipole Z            :         -4.9154326            5.1841329            0.2687003
 Magnitude           :                                                    1.1898910

    SAPT Results
  --------------------------------------------------------------------------------------------------------
    Electrostatics               -127.85552090 [mEh]     -80.23055064 [kcal/mol]    -335.68462388 [kJ/mol]
      Elst10,r                   -133.80207466 [mEh]     -83.96206946 [kcal/mol]    -351.29729863 [kJ/mol]
      Elst12,r                      5.94655376 [mEh]       3.73151882 [kcal/mol]      15.61267475 [kJ/mol]

    Exchange                       43.49542467 [mEh]      27.29379105 [kcal/mol]     114.19722173 [kJ/mol]
      Exch10                       38.52213252 [mEh]      24.17300311 [kcal/mol]     101.13984500 [kJ/mol]
      Exch10(S^2)                  38.45328563 [mEh]      24.12980103 [kcal/mol]     100.95908752 [kJ/mol]
      Exch11(S^2)                  -0.91902656 [mEh]      -0.57669787 [kcal/mol]      -2.41290389 [kJ/mol]
      Exch12(S^2)                   5.89231870 [mEh]       3.69748581 [kcal/mol]      15.47028063 [kJ/mol]

    Induction                     -43.40136092 [mEh]     -27.23476515 [kcal/mol]    -113.95025739 [kJ/mol]
      Ind20,r                     -73.11521374 [mEh]     -45.88048930 [kcal/mol]    -191.96396723 [kJ/mol]
      Ind22                       -11.98129019 [mEh]      -7.51837311 [kcal/mol]     -31.45687307 [kJ/mol]
      Exch-Ind20,r                 33.97125605 [mEh]      21.31728501 [kcal/mol]      89.19152048 [kJ/mol]
      Exch-Ind22                    5.56682332 [mEh]       3.49323437 [kcal/mol]      14.61569262 [kJ/mol]
      delta HF,r (2)                2.15706364 [mEh]       1.35357787 [kcal/mol]       5.66336981 [kJ/mol]

    Dispersion                     -3.87587515 [mEh]      -2.43214838 [kcal/mol]     -10.17610882 [kJ/mol]
      Disp20                       -3.85587544 [mEh]      -2.41959837 [kcal/mol]     -10.12359958 [kJ/mol]
      Disp21                       -0.08363676 [mEh]      -0.05248286 [kcal/mol]      -0.21958829 [kJ/mol]
      Disp22 (SDQ)                 -0.25845166 [mEh]      -0.16218087 [kcal/mol]      -0.67856474 [kJ/mol]
      Disp22 (T)                   -0.34536627 [mEh]      -0.21672060 [kcal/mol]      -0.90675901 [kJ/mol]
      Est. Disp22 (T)              -0.38631872 [mEh]      -0.24241866 [kcal/mol]      -1.01427967 [kJ/mol]
      Exch-Disp20                   0.70840744 [mEh]       0.44453238 [kcal/mol]       1.85992347 [kJ/mol]

  Total HF                       -132.26683619 [mEh]     -82.99869277 [kcal/mol]    -347.26653057 [kJ/mol]
  Total SAPT0                    -135.41430419 [mEh]     -84.97375877 [kcal/mol]    -355.53020668 [kJ/mol]
  Total SAPT2                    -130.90892516 [mEh]     -82.14659074 [kcal/mol]    -343.70133565 [kJ/mol]
  Total SAPT2+                   -131.63733231 [mEh]     -82.60367312 [kcal/mol]    -345.61376835 [kJ/mol]

  Special recipe for scaled SAPT0 (see Manual):
    Electrostatics sSAPT0        -133.80207466 [mEh]     -83.96206946 [kcal/mol]    -351.29729863 [kJ/mol]
    Exchange sSAPT0                38.52213252 [mEh]      24.17300311 [kcal/mol]     101.13984500 [kJ/mol]
    Induction sSAPT0              -36.80410042 [mEh]     -23.09492169 [kcal/mol]     -96.62915234 [kJ/mol]
    Dispersion sSAPT0              -3.14365618 [mEh]      -1.97267404 [kcal/mol]      -8.25366817 [kJ/mol]
  Total sSAPT0                   -135.22769875 [mEh]     -84.85666208 [kcal/mol]    -355.04027415 [kJ/mol]
  --------------------------------------------------------------------------------------------------------

*** Psi4 exiting successfully. Buy a developer a beer!
