                               Psi4 1.9 release

  ==> Input File <==

--------------------------------------------------------------------------
MEMORY 60 GB

molecule dimer {
1 1
Na     0.000000     0.000000     0.000000
--
0 1
O      1.747514    -1.240286    -0.375824
H      2.581703    -1.519130     0.078519
H      1.479033    -2.093395    -0.704350
O     -0.429820    -0.381650    -2.462831
H     -1.131957     0.024596    -3.095869
H     -0.303470    -1.200046    -3.002034
O     -0.228330     2.599785     0.309304
H     -1.092556     2.758248     0.746061
H     -0.374367     2.681910    -0.695767
O      0.084550    -0.396548     2.467479
H      0.621263     0.054807     3.131341
H      0.404248    -1.312537     2.361715
O     -1.925565    -1.536386     0.102860
H     -2.658248    -1.897907    -0.433939
H     -1.979879    -1.934402     0.955160

units ang
no_reorient
no_com
symmetry c1
}

set {
basis        aug-cc-pVTZ
scf_type     df
}

energy("sapt2+")
--------------------------------------------------------------------------

  //              Dimer HF             //
    Molecular point group: c1
  Charge       = 1
  Multiplicity = 1
  Basis Set: AUG-CC-PVTZ
    Blend: AUG-CC-PVTZ
  Basis Set: (AUG-CC-PVTZ AUX)
    Blend: AUG-CC-PVTZ-JKFIT + DEF2-UNIVERSAL-JKFIT
  @DF-RHF Final Energy:  -542.07267867647204
    Total Energy =                       -542.0726786764719236
 Dipole X            :         15.3718136          -16.0011388           -0.6293252
 Dipole Y            :         21.0580688          -22.8251250           -1.7670562
 Dipole Z            :          0.1639563           -0.6259888           -0.4620325
 Magnitude           :                                                    1.9318416
  //            Monomer A HF           //
    Molecular point group: c1
  Multiplicity = 1
  Basis Set: AUG-CC-PVTZ
    Blend: AUG-CC-PVTZ
  Basis Set: (AUG-CC-PVTZ AUX)
    Blend: AUG-CC-PVTZ-JKFIT + DEF2-UNIVERSAL-JKFIT
  @DF-RHF Final Energy:  -161.67608969031076
    Total Energy =                       -161.6760896903107607
  //            Monomer B HF           //
    Molecular point group: c1

    Geometry (in Angstrom), charge = 0, multiplicity = 1:

       Center              X                  Y                   Z               Mass
    ------------   -----------------  -----------------  -----------------  -----------------
      Gh(NA)          0.000000000000     0.000000000000     0.000000000000    22.989769282000
         O            1.747514000000    -1.240286000000    -0.375824000000    15.994914619570
         H            2.581703000000    -1.519130000000     0.078519000000     1.007825032230
         H            1.479033000000    -2.093395000000    -0.704350000000     1.007825032230
         O           -0.429820000000    -0.381650000000    -2.462831000000    15.994914619570
         H           -1.131957000000     0.024596000000    -3.095869000000     1.007825032230
         H           -0.303470000000    -1.200046000000    -3.002034000000     1.007825032230
         O           -0.228330000000     2.599785000000     0.309304000000    15.994914619570
         H           -1.092556000000     2.758248000000     0.746061000000     1.007825032230
         H           -0.374367000000     2.681910000000    -0.695767000000     1.007825032230
         O            0.084550000000    -0.396548000000     2.467479000000    15.994914619570
         H            0.621263000000     0.054807000000     3.131341000000     1.007825032230
         H            0.404248000000    -1.312537000000     2.361715000000     1.007825032230
         O           -1.925565000000    -1.536386000000     0.102860000000    15.994914619570
         H           -2.658248000000    -1.897907000000    -0.433939000000     1.007825032230
         H           -1.979879000000    -1.934402000000     0.955160000000     1.007825032230

  Charge       = 0
  Multiplicity = 1
  Basis Set: AUG-CC-PVTZ
    Blend: AUG-CC-PVTZ
  Basis Set: (AUG-CC-PVTZ AUX)
    Blend: AUG-CC-PVTZ-JKFIT + DEF2-UNIVERSAL-JKFIT

    Orbital Energies [Eh]
    ---------------------

    Doubly Occupied:

       1A    -20.559342     2A    -20.546205     3A    -20.542560
       4A    -20.539141     5A    -20.536397     6A     -1.326823
       7A     -1.325020     8A     -1.315361     9A     -1.314687
      10A     -1.294248    11A     -0.699673    12A     -0.689974
      13A     -0.672136    14A     -0.663760    15A     -0.651285
      16A     -0.574801    17A     -0.560804    18A     -0.552477
      19A     -0.543400    20A     -0.534142    21A     -0.490422
      22A     -0.486470    23A     -0.483045    24A     -0.475097
      25A     -0.468365

  @DF-RHF Final Energy:  -380.26312517239842

   => Energetics <=

    Nuclear Repulsion Energy =            181.0600514491719935
    One-Electron Energy =                -886.9550752324217910
    Two-Electron Energy =                 325.6318986108514082
    Total Energy =                       -380.2631251723984178
 Dipole X            :         15.4317800          -16.0011388           -0.5693589
 Dipole Y            :         21.2669660          -22.8251250           -1.5581590
 Dipole Z            :          0.1798732           -0.6259888           -0.4461156
 Magnitude           :                                                    1.7178615

    SAPT Results
  --------------------------------------------------------------------------------------------------------
    Electrostatics               -120.49836817 [mEh]     -75.61386760 [kcal/mol]    -316.36842203 [kJ/mol]
      Elst10,r                   -128.37198661 [mEh]     -80.55463777 [kcal/mol]    -337.04060441 [kJ/mol]
      Elst12,r                      7.87361845 [mEh]       4.94077017 [kcal/mol]      20.67218238 [kJ/mol]

    Exchange                       29.78500652 [mEh]      18.69037377 [kcal/mol]      78.20052384 [kJ/mol]
      Exch10                       26.70385834 [mEh]      16.75692409 [kcal/mol]      70.11097041 [kJ/mol]
      Exch10(S^2)                  26.65745313 [mEh]      16.72780439 [kcal/mol]      69.98913355 [kJ/mol]
      Exch11(S^2)                  -0.52004794 [mEh]      -0.32633501 [kcal/mol]      -1.36538567 [kJ/mol]
      Exch12(S^2)                   3.60119612 [mEh]       2.25978468 [kcal/mol]       9.45493910 [kJ/mol]

    Induction                     -36.60010565 [mEh]     -22.96691304 [kcal/mol]     -96.09356416 [kJ/mol]
      Ind20,r                     -57.08101690 [mEh]     -35.81887888 [kcal/mol]    -149.86618922 [kJ/mol]
      Ind22                        -8.17467310 [mEh]      -5.12968482 [kcal/mol]     -21.46260127 [kJ/mol]
      Exch-Ind20,r                 23.53335266 [mEh]      14.76740174 [kcal/mol]      61.78680889 [kJ/mol]
      Exch-Ind22                    3.37025294 [mEh]       2.11486565 [kcal/mol]       8.84859787 [kJ/mol]
      delta HF,r (2)                1.75197875 [mEh]       1.09938326 [kcal/mol]       4.59981957 [kJ/mol]

    Dispersion                     -2.73592855 [mEh]      -1.71682108 [kcal/mol]      -7.18317941 [kJ/mol]
      Disp20                       -2.67410010 [mEh]      -1.67802315 [kcal/mol]      -7.02084884 [kJ/mol]
      Disp21                       -0.06765544 [mEh]      -0.04245443 [kcal/mol]      -0.17762932 [kJ/mol]
      Disp22 (SDQ)                 -0.16938066 [mEh]      -0.10628797 [kcal/mol]      -0.44470886 [kJ/mol]
      Disp22 (T)                   -0.22802894 [mEh]      -0.14309032 [kcal/mol]      -0.59868990 [kJ/mol]
      Est. Disp22 (T)              -0.26163532 [mEh]      -0.16417864 [kcal/mol]      -0.68692344 [kJ/mol]
      Exch-Disp20                   0.43684297 [mEh]       0.27412310 [kcal/mol]       1.14693105 [kJ/mol]

  Total HF                       -133.46381376 [mEh]     -83.74980754 [kcal/mol]    -350.40919476 [kJ/mol]
  Total SAPT0                    -135.70107089 [mEh]     -85.15370759 [kcal/mol]    -356.28311255 [kJ/mol]
  Total SAPT2                    -129.55072443 [mEh]     -81.29430692 [kcal/mol]    -340.13538014 [kJ/mol]
  Total SAPT2+                   -130.04939585 [mEh]     -81.60722795 [kcal/mol]    -341.44464176 [kJ/mol]

  Special recipe for scaled SAPT0 (see Manual):
    Electrostatics sSAPT0        -128.37198661 [mEh]     -80.55463777 [kcal/mol]    -337.04060441 [kJ/mol]
    Exchange sSAPT0                26.70385834 [mEh]      16.75692409 [kcal/mol]      70.11097041 [kJ/mol]
    Induction sSAPT0              -31.67257107 [mEh]     -19.87483841 [kcal/mol]     -83.15632389 [kJ/mol]
    Dispersion sSAPT0              -2.23497179 [mEh]      -1.40246597 [kcal/mol]      -5.86791764 [kJ/mol]
  Total sSAPT0                   -135.57567114 [mEh]     -85.07501805 [kcal/mol]    -355.95387553 [kJ/mol]
  --------------------------------------------------------------------------------------------------------

*** Psi4 exiting successfully. Buy a developer a beer!
