                               Psi4 1.9 release

  ==> Input File <==

--------------------------------------------------------------------------
MEMORY 60 GB

molecule dimer {
1 1
Na     0.000000     0.000000     0.000000
--
0 1
O      1.253379    -0.553947    -1.795986
H      1.273490    -1.231624    -2.437543
H      2.156284    -0.245421    -1.763626
O      1.653641    -0.225820     1.459891
H      2.288234     0.493100     1.361670
H      1.659884    -0.507457     2.410014
O     -0.197384    -2.387924     0.118493
H      0.422453    -2.904071     0.645872
H     -0.888605    -3.002090    -0.148393
O     -0.691979     1.747232     1.638579
H     -0.060873     2.000291     2.305818
H     -0.951374     2.650499     1.367873

units ang
no_reorient
no_com
symmetry c1
}

set {
basis        aug-cc-pVTZ
scf_type     df
}

energy("sapt2+")
--------------------------------------------------------------------------

  //              Dimer HF             //
    Molecular point group: c1
  Charge       = 1
  Multiplicity = 1
  Basis Set: AUG-CC-PVTZ
    Blend: AUG-CC-PVTZ
  Basis Set: (AUG-CC-PVTZ AUX)
    Blend: AUG-CC-PVTZ-JKFIT + DEF2-UNIVERSAL-JKFIT
  @DF-RHF Final Energy:  -466.01917940724161
    Total Energy =                       -466.0191794072416087
 Dipole X            :        -40.1857805           41.6509792            1.4651987
 Dipole Y            :         26.5280943          -26.6648766           -0.1367823
 Dipole Z            :        -27.8143503           28.5528188            0.7384685
 Magnitude           :                                                    1.6464666
  //            Monomer A HF           //
    Molecular point group: c1
  Multiplicity = 1
  Basis Set: AUG-CC-PVTZ
    Blend: AUG-CC-PVTZ
  Basis Set: (AUG-CC-PVTZ AUX)
    Blend: AUG-CC-PVTZ-JKFIT + DEF2-UNIVERSAL-JKFIT
  @DF-RHF Final Energy:  -161.67608527918588
    Total Energy =                       -161.6760852791858838
  //            Monomer B HF           //
    Molecular point group: c1

    Geometry (in Angstrom), charge = 0, multiplicity = 1:

       Center              X                  Y                   Z               Mass
    ------------   -----------------  -----------------  -----------------  -----------------
      Gh(NA)          0.000000000000     0.000000000000     0.000000000000    22.989769282000
         O            1.253379000000    -0.553947000000    -1.795986000000    15.994914619570
         H            1.273490000000    -1.231624000000    -2.437543000000     1.007825032230
         H            2.156284000000    -0.245421000000    -1.763626000000     1.007825032230
         O            1.653641000000    -0.225820000000     1.459891000000    15.994914619570
         H            2.288234000000     0.493100000000     1.361670000000     1.007825032230
         H            1.659884000000    -0.507457000000     2.410014000000     1.007825032230
         O           -0.197384000000    -2.387924000000     0.118493000000    15.994914619570
         H            0.422453000000    -2.904071000000     0.645872000000     1.007825032230
         H           -0.888605000000    -3.002090000000    -0.148393000000     1.007825032230
         O           -0.691979000000     1.747232000000     1.638579000000    15.994914619570
         H           -0.060873000000     2.000291000000     2.305818000000     1.007825032230
         H           -0.951374000000     2.650499000000     1.367873000000     1.007825032230

  Charge       = 0
  Multiplicity = 1
  Basis Set: AUG-CC-PVTZ
    Blend: AUG-CC-PVTZ
  Basis Set: (AUG-CC-PVTZ AUX)
    Blend: AUG-CC-PVTZ-JKFIT + DEF2-UNIVERSAL-JKFIT

    Orbital Energies [Eh]
    ---------------------

    Doubly Occupied:

       1A    -20.548904     2A    -20.548293     3A    -20.533988
       4A    -20.530604     5A     -1.332575     6A     -1.327446
       7A     -1.321012     8A     -1.315987     9A     -0.694315
      10A     -0.689475    11A     -0.683028    12A     -0.676376
      13A     -0.573834    14A     -0.560802    15A     -0.548062
      16A     -0.539151    17A     -0.495736    18A     -0.483151
      19A     -0.478522    20A     -0.467871

  @DF-RHF Final Energy:  -304.21859786482077

   => Energetics <=

    Nuclear Repulsion Energy =            123.8094939191267088
    One-Electron Energy =                -667.3579091855708612
    Two-Electron Energy =                 239.3298174016234157
    Total Energy =                       -304.2185978648207652
 Dipole X            :        -40.5015522           41.6509792            1.1494271
 Dipole Y            :         26.7040162          -26.6648766            0.0391396
 Dipole Z            :        -27.9977439           28.5528188            0.5550749
 Magnitude           :                                                    1.2770367

    SAPT Results
  --------------------------------------------------------------------------------------------------------
    Electrostatics               -117.90727537 [mEh]     -73.98793232 [kcal/mol]    -309.56550884 [kJ/mol]
      Elst10,r                   -125.86469947 [mEh]     -78.98129133 [kcal/mol]    -330.45772293 [kJ/mol]
      Elst12,r                      7.95742409 [mEh]       4.99335901 [kcal/mol]      20.89221408 [kJ/mol]

    Exchange                       33.12290260 [mEh]      20.78493518 [kcal/mol]      86.96416879 [kJ/mol]
      Exch10                       30.07337618 [mEh]      18.87132846 [kcal/mol]      78.95763829 [kJ/mol]
      Exch10(S^2)                  30.01128301 [mEh]      18.83236441 [kcal/mol]      78.79461268 [kJ/mol]
      Exch11(S^2)                  -0.53288852 [mEh]      -0.33439260 [kcal/mol]      -1.39909863 [kJ/mol]
      Exch12(S^2)                   3.58241494 [mEh]       2.24799931 [kcal/mol]       9.40562913 [kJ/mol]

    Induction                     -32.82994440 [mEh]     -20.60110113 [kcal/mol]     -86.19500715 [kJ/mol]
      Ind20,r                     -56.76325389 [mEh]     -35.61947958 [kcal/mol]    -149.03190256 [kJ/mol]
      Ind22                        -7.60128452 [mEh]      -4.76987805 [kcal/mol]     -19.95716976 [kJ/mol]
      Exch-Ind20,r                 25.95942405 [mEh]      16.28978453 [kcal/mol]      68.15645846 [kJ/mol]
      Exch-Ind22                    3.47628007 [mEh]       2.18139868 [kcal/mol]       9.12697207 [kJ/mol]
      delta HF,r (2)                2.09888989 [mEh]       1.31707329 [kcal/mol]       5.51063466 [kJ/mol]

    Dispersion                     -2.59721442 [mEh]      -1.62977666 [kcal/mol]      -6.81898553 [kJ/mol]
      Disp20                       -2.59925439 [mEh]      -1.63105675 [kcal/mol]      -6.82434145 [kJ/mol]
      Disp21                       -0.05935207 [mEh]      -0.03724399 [kcal/mol]      -0.15582885 [kJ/mol]
      Disp22 (SDQ)                 -0.15899490 [mEh]      -0.09977080 [kcal/mol]      -0.41744104 [kJ/mol]
      Disp22 (T)                   -0.21178905 [mEh]      -0.13289964 [kcal/mol]      -0.55605208 [kJ/mol]
      Est. Disp22 (T)              -0.24673351 [mEh]      -0.15482762 [kcal/mol]      -0.64779874 [kJ/mol]
      Exch-Disp20                   0.46712044 [mEh]       0.29312250 [kcal/mol]       1.22642455 [kJ/mol]

  Total HF                       -124.49626323 [mEh]     -78.12258463 [kcal/mol]    -326.86489409 [kJ/mol]
  Total SAPT0                    -126.62839718 [mEh]     -79.46051888 [kcal/mol]    -332.46281099 [kJ/mol]
  Total SAPT2                    -119.74645112 [mEh]     -75.14203253 [kcal/mol]    -314.39426411 [kJ/mol]
  Total SAPT2+                   -120.21153160 [mEh]     -75.43387494 [kcal/mol]    -315.61533274 [kJ/mol]

  Special recipe for scaled SAPT0 (see Manual):
    Electrostatics sSAPT0        -125.86469947 [mEh]     -78.98129133 [kcal/mol]    -330.45772293 [kJ/mol]
    Exchange sSAPT0                30.07337618 [mEh]      18.87132846 [kcal/mol]      78.95763829 [kJ/mol]
    Induction sSAPT0              -28.54347664 [mEh]     -17.91130200 [kcal/mol]     -74.94088758 [kJ/mol]
    Dispersion sSAPT0              -2.12922853 [mEh]      -1.33611108 [kcal/mol]      -5.59028874 [kJ/mol]
  Total sSAPT0                   -126.46402845 [mEh]     -79.35737595 [kcal/mol]    -332.03126096 [kJ/mol]
  --------------------------------------------------------------------------------------------------------

*** Psi4 exiting successfully. Buy a developer a beer!
