                               Psi4 1.9 release

  ==> Input File <==

--------------------------------------------------------------------------
MEMORY 60 GB

molecule dimer {
1 1
Na     0.000000     0.000000     0.000000
--
0 1
O     -1.395183     1.416531     1.115880
H     -1.935421     2.181378     0.930318
H     -0.776281     1.627815     1.829800
O     -1.644028    -1.867254    -0.467300
H     -1.184540    -2.597510    -0.013234
H     -1.955768    -2.260579    -1.228122
O      1.995929     1.382494     0.461430
H      2.261805     2.279725     0.187226
H      2.772848     0.877410     0.253783
O      0.711563    -1.241514     1.652283
H      0.535075    -1.057522     2.588328
H      1.001081    -2.145098     1.605558

units ang
no_reorient
no_com
symmetry c1
}

set {
basis        aug-cc-pVTZ
scf_type     df
}

energy("sapt2+")
--------------------------------------------------------------------------

  //              Dimer HF             //
    Molecular point group: c1
  Charge       = 1
  Multiplicity = 1
  Basis Set: AUG-CC-PVTZ
    Blend: AUG-CC-PVTZ
  Basis Set: (AUG-CC-PVTZ AUX)
    Blend: AUG-CC-PVTZ-JKFIT + DEF2-UNIVERSAL-JKFIT
  @DF-RHF Final Energy:  -466.01891632663512
    Total Energy =                       -466.0189163266351215
 Dipole X            :          4.5583874           -3.6565312            0.9018562
 Dipole Y            :          6.4330674           -6.7507159           -0.3176485
 Dipole Z            :        -52.6544417           53.3885444            0.7341027
 Magnitude           :                                                    1.2054675
  //            Monomer A HF           //
    Molecular point group: c1
  Multiplicity = 1
  Basis Set: AUG-CC-PVTZ
    Blend: AUG-CC-PVTZ
  Basis Set: (AUG-CC-PVTZ AUX)
    Blend: AUG-CC-PVTZ-JKFIT + DEF2-UNIVERSAL-JKFIT
  @DF-RHF Final Energy:  -161.67608467659207
    Total Energy =                       -161.6760846765920689
  //            Monomer B HF           //
    Molecular point group: c1

    Geometry (in Angstrom), charge = 0, multiplicity = 1:

       Center              X                  Y                   Z               Mass
    ------------   -----------------  -----------------  -----------------  -----------------
      Gh(NA)          0.000000000000     0.000000000000     0.000000000000    22.989769282000
         O           -1.395183000000     1.416531000000     1.115880000000    15.994914619570
         H           -1.935421000000     2.181378000000     0.930318000000     1.007825032230
         H           -0.776281000000     1.627815000000     1.829800000000     1.007825032230
         O           -1.644028000000    -1.867254000000    -0.467300000000    15.994914619570
         H           -1.184540000000    -2.597510000000    -0.013234000000     1.007825032230
         H           -1.955768000000    -2.260579000000    -1.228122000000     1.007825032230
         O            1.995929000000     1.382494000000     0.461430000000    15.994914619570
         H            2.261805000000     2.279725000000     0.187226000000     1.007825032230
         H            2.772848000000     0.877410000000     0.253783000000     1.007825032230
         O            0.711563000000    -1.241514000000     1.652283000000    15.994914619570
         H            0.535075000000    -1.057522000000     2.588328000000     1.007825032230
         H            1.001081000000    -2.145098000000     1.605558000000     1.007825032230

  Charge       = 0
  Multiplicity = 1
  Basis Set: AUG-CC-PVTZ
    Blend: AUG-CC-PVTZ
  Basis Set: (AUG-CC-PVTZ AUX)
    Blend: AUG-CC-PVTZ-JKFIT + DEF2-UNIVERSAL-JKFIT

    Orbital Energies [Eh]
    ---------------------

    Doubly Occupied:

       1A    -20.549169     2A    -20.549045     3A    -20.536133
       4A    -20.530858     5A     -1.335136     6A     -1.333461
       7A     -1.332222     8A     -1.313231     9A     -0.704404
      10A     -0.693488    11A     -0.690297    12A     -0.688570
      13A     -0.572052    14A     -0.560422    15A     -0.555135
      16A     -0.536921    17A     -0.492598    18A     -0.489448
      19A     -0.481801    20A     -0.472691

  @DF-RHF Final Energy:  -304.22586017747932

   => Energetics <=

    Nuclear Repulsion Energy =            122.2502410031023459
    One-Electron Energy =                -664.1180300443428450
    Two-Electron Energy =                 237.6419288637611942
    Total Energy =                       -304.2258601774792623
 Dipole X            :          4.5634831           -3.6565312            0.9069519
 Dipole Y            :          6.4559972           -6.7507159           -0.2947187
 Dipole Z            :        -53.0203521           53.3885444            0.3681923
 Magnitude           :                                                    1.0222457

    SAPT Results
  --------------------------------------------------------------------------------------------------------
    Electrostatics               -112.36558861 [mEh]     -70.51047138 [kcal/mol]    -295.01581225 [kJ/mol]
      Elst10,r                   -119.05459374 [mEh]     -74.70788547 [kcal/mol]    -312.57779279 [kJ/mol]
      Elst12,r                      6.68900513 [mEh]       4.19741409 [kcal/mol]      17.56198054 [kJ/mol]

    Exchange                       33.39543692 [mEh]      20.95595305 [kcal/mol]      87.67970755 [kJ/mol]
      Exch10                       30.19601828 [mEh]      18.94828754 [kcal/mol]      79.27963507 [kJ/mol]
      Exch10(S^2)                  30.13208305 [mEh]      18.90816758 [kcal/mol]      79.11177316 [kJ/mol]
      Exch11(S^2)                  -0.53601219 [mEh]      -0.33635273 [kcal/mol]      -1.40729982 [kJ/mol]
      Exch12(S^2)                   3.73543084 [mEh]       2.34401824 [kcal/mol]       9.80737231 [kJ/mol]

    Induction                     -32.25492116 [mEh]     -20.24026861 [kcal/mol]     -84.68528384 [kJ/mol]
      Ind20,r                     -57.01072225 [mEh]     -35.77476832 [kcal/mol]    -149.68163065 [kJ/mol]
      Ind22                        -7.80974764 [mEh]      -4.90069063 [kcal/mol]     -20.50448961 [kJ/mol]
      Exch-Ind20,r                 26.77417762 [mEh]      16.80105011 [kcal/mol]      70.29559366 [kJ/mol]
      Exch-Ind22                    3.66772358 [mEh]       2.30153130 [kcal/mol]       9.62960694 [kJ/mol]
      delta HF,r (2)                2.12364753 [mEh]       1.33260894 [kcal/mol]       5.57563582 [kJ/mol]

    Dispersion                     -2.55992588 [mEh]      -1.60637774 [kcal/mol]      -6.72108448 [kJ/mol]
      Disp20                       -2.55303034 [mEh]      -1.60205073 [kcal/mol]      -6.70298024 [kJ/mol]
      Disp21                       -0.06986131 [mEh]      -0.04383864 [kcal/mol]      -0.18342085 [kJ/mol]
      Disp22 (SDQ)                 -0.15928077 [mEh]      -0.09995019 [kcal/mol]      -0.41819161 [kJ/mol]
      Disp22 (T)                   -0.21296706 [mEh]      -0.13363884 [kcal/mol]      -0.55914493 [kJ/mol]
      Est. Disp22 (T)              -0.24506979 [mEh]      -0.15378361 [kcal/mol]      -0.64343064 [kJ/mol]
      Exch-Disp20                   0.46731634 [mEh]       0.29324543 [kcal/mol]       1.22693888 [kJ/mol]

  Total HF                       -116.97147256 [mEh]     -73.40070720 [kcal/mol]    -307.10855891 [kJ/mol]
  Total SAPT0                    -119.05718657 [mEh]     -74.70951249 [kcal/mol]    -312.58460027 [kJ/mol]
  Total SAPT2                    -113.31078686 [mEh]     -71.10359224 [kcal/mol]    -297.49742992 [kJ/mol]
  Total SAPT2+                   -113.78499874 [mEh]     -71.40116468 [kcal/mol]    -298.74247303 [kJ/mol]

  Special recipe for scaled SAPT0 (see Manual):
    Electrostatics sSAPT0        -119.05459374 [mEh]     -74.70788547 [kcal/mol]    -312.57779279 [kJ/mol]
    Exchange sSAPT0                30.19601828 [mEh]      18.94828754 [kcal/mol]      79.27963507 [kJ/mol]
    Induction sSAPT0              -27.94210429 [mEh]     -17.53393516 [kcal/mol]     -73.36198469 [kJ/mol]
    Dispersion sSAPT0              -2.08273299 [mEh]      -1.30693468 [kcal/mol]      -5.46821471 [kJ/mol]
  Total sSAPT0                   -118.88341273 [mEh]     -74.60046777 [kcal/mol]    -312.12835713 [kJ/mol]
  --------------------------------------------------------------------------------------------------------

*** Psi4 exiting successfully. Buy a developer a beer!
