                               Psi4 1.9 release

  ==> Input File <==

--------------------------------------------------------------------------
MEMORY 60 GB

molecule dimer {
1 1
Na     0.000000     0.000000     0.000000
--
0 1
O     -1.035469    -1.877733    -1.037852
H     -1.914073    -1.912738    -1.481150
H     -1.270202    -2.328220    -0.196405
O     -0.623731    -1.237449     2.063589
H      0.123574    -1.772288     1.889788
H     -0.388852    -0.873164     2.865156
O      0.653367     1.518737     1.808040
H      0.766860     2.445606     1.720125
H      0.812468     1.282621     2.725264
O      2.312222    -0.475036    -0.468273
H      2.269566    -1.391884    -0.857949
H      2.939618    -0.534606     0.294558
O     -0.258050     2.061129    -1.410113
H     -0.293113     2.841031    -0.763467
H      0.138236     2.436837    -2.226861

units ang
no_reorient
no_com
symmetry c1
}

set {
basis        aug-cc-pVTZ
scf_type     df
}

energy("sapt2+")
--------------------------------------------------------------------------

  //              Dimer HF             //
    Molecular point group: c1
  Charge       = 1
  Multiplicity = 1
  Basis Set: AUG-CC-PVTZ
    Blend: AUG-CC-PVTZ
  Basis Set: (AUG-CC-PVTZ AUX)
    Blend: AUG-CC-PVTZ-JKFIT + DEF2-UNIVERSAL-JKFIT
  @DF-RHF Final Energy:  -542.07779530553228
    Total Energy =                       -542.0777953055322769
 Dipole X            :        -21.0462355           21.8656317            0.8193962
 Dipole Y            :         -0.0046968            0.2085861            0.2038893
 Dipole Z            :        -20.5296198           21.9438531            1.4142333
 Magnitude           :                                                    1.6471299
  //            Monomer A HF           //
    Molecular point group: c1
  Multiplicity = 1
  Basis Set: AUG-CC-PVTZ
    Blend: AUG-CC-PVTZ
  Basis Set: (AUG-CC-PVTZ AUX)
    Blend: AUG-CC-PVTZ-JKFIT + DEF2-UNIVERSAL-JKFIT
  @DF-RHF Final Energy:  -161.67609026953073
    Total Energy =                       -161.6760902695307323
  //            Monomer B HF           //
    Molecular point group: c1

    Geometry (in Angstrom), charge = 0, multiplicity = 1:

       Center              X                  Y                   Z               Mass
    ------------   -----------------  -----------------  -----------------  -----------------
      Gh(NA)          0.000000000000     0.000000000000     0.000000000000    22.989769282000
         O           -1.035469000000    -1.877733000000    -1.037852000000    15.994914619570
         H           -1.914073000000    -1.912738000000    -1.481150000000     1.007825032230
         H           -1.270202000000    -2.328220000000    -0.196405000000     1.007825032230
         O           -0.623731000000    -1.237449000000     2.063589000000    15.994914619570
         H            0.123574000000    -1.772288000000     1.889788000000     1.007825032230
         H           -0.388852000000    -0.873164000000     2.865156000000     1.007825032230
         O            0.653367000000     1.518737000000     1.808040000000    15.994914619570
         H            0.766860000000     2.445606000000     1.720125000000     1.007825032230
         H            0.812468000000     1.282621000000     2.725264000000     1.007825032230
         O            2.312222000000    -0.475036000000    -0.468273000000    15.994914619570
         H            2.269566000000    -1.391884000000    -0.857949000000     1.007825032230
         H            2.939618000000    -0.534606000000     0.294558000000     1.007825032230
         O           -0.258050000000     2.061129000000    -1.410113000000    15.994914619570
         H           -0.293113000000     2.841031000000    -0.763467000000     1.007825032230
         H            0.138236000000     2.436837000000    -2.226861000000     1.007825032230

  Charge       = 0
  Multiplicity = 1
  Basis Set: AUG-CC-PVTZ
    Blend: AUG-CC-PVTZ
  Basis Set: (AUG-CC-PVTZ AUX)
    Blend: AUG-CC-PVTZ-JKFIT + DEF2-UNIVERSAL-JKFIT

    Orbital Energies [Eh]
    ---------------------

    Doubly Occupied:

       1A    -20.552227     2A    -20.547537     3A    -20.544160
       4A    -20.544075     5A    -20.541864     6A     -1.361658
       7A     -1.343797     8A     -1.312272     9A     -1.305874
      10A     -1.303204    11A     -0.722849    12A     -0.713605
      13A     -0.671781    14A     -0.665619    15A     -0.661157
      16A     -0.585315    17A     -0.565572    18A     -0.558643
      19A     -0.545557    20A     -0.542806    21A     -0.501378
      22A     -0.494960    23A     -0.477309    24A     -0.476534
      25A     -0.475602

  @DF-RHF Final Energy:  -380.27003083190124

   => Energetics <=

    Nuclear Repulsion Energy =            183.4404461111651301
    One-Electron Energy =                -891.3902407232706082
    Two-Electron Energy =                 327.6797637802042686
    Total Energy =                       -380.2700308319012379
 Dipole X            :        -21.1854925           21.8656317            0.6801392
 Dipole Y            :          0.0014568            0.2085861            0.2100429
 Dipole Z            :        -20.6566922           21.9438531            1.2871609
 Magnitude           :                                                    1.4708809

    SAPT Results
  --------------------------------------------------------------------------------------------------------
    Electrostatics               -117.98107038 [mEh]     -74.03423939 [kcal/mol]    -309.75925762 [kJ/mol]
      Elst10,r                   -124.71823579 [mEh]     -78.26187451 [kcal/mol]    -327.44768295 [kJ/mol]
      Elst12,r                      6.73716540 [mEh]       4.22763512 [kcal/mol]      17.68842533 [kJ/mol]

    Exchange                       27.69495851 [mEh]      17.37884884 [kcal/mol]      72.71310355 [kJ/mol]
      Exch10                       24.36122754 [mEh]      15.28690107 [kcal/mol]      63.96039409 [kJ/mol]
      Exch10(S^2)                  24.34319677 [mEh]      15.27558660 [kcal/mol]      63.91305431 [kJ/mol]
      Exch11(S^2)                  -0.50279940 [mEh]      -0.31551139 [kcal/mol]      -1.32009965 [kJ/mol]
      Exch12(S^2)                   3.83653038 [mEh]       2.40745916 [kcal/mol]      10.07280912 [kJ/mol]

    Induction                     -36.36005769 [mEh]     -22.81628067 [kcal/mol]     -95.46331831 [kJ/mol]
      Ind20,r                     -55.48912734 [mEh]     -34.81995310 [kcal/mol]    -145.68668375 [kJ/mol]
      Ind22                        -8.45784869 [mEh]      -5.30738018 [kcal/mol]     -22.20607869 [kJ/mol]
      Exch-Ind20,r                 22.40459096 [mEh]      14.05909308 [kcal/mol]      58.82324546 [kJ/mol]
      Exch-Ind22                    3.41498685 [mEh]       2.14293660 [kcal/mol]       8.96604675 [kJ/mol]
      delta HF,r (2)                1.76734053 [mEh]       1.10902292 [kcal/mol]       4.64015191 [kJ/mol]

    Dispersion                     -2.66044107 [mEh]      -1.66945198 [kcal/mol]      -6.98498707 [kJ/mol]
      Disp20                       -2.55960809 [mEh]      -1.60617833 [kcal/mol]      -6.72025012 [kJ/mol]
      Disp21                       -0.08938078 [mEh]      -0.05608729 [kcal/mol]      -0.23466922 [kJ/mol]
      Disp22 (SDQ)                 -0.16509315 [mEh]      -0.10359752 [kcal/mol]      -0.43345200 [kJ/mol]
      Disp22 (T)                   -0.21925699 [mEh]      -0.13758584 [kcal/mol]      -0.57565916 [kJ/mol]
      Est. Disp22 (T)              -0.25311675 [mEh]      -0.15883316 [kcal/mol]      -0.66455795 [kJ/mol]
      Exch-Disp20                   0.40675771 [mEh]       0.25524432 [kcal/mol]       1.06794223 [kJ/mol]

  Total HF                       -131.67420410 [mEh]     -82.62681053 [kcal/mol]    -345.71057524 [kJ/mol]
  Total SAPT0                    -133.82705448 [mEh]     -83.97774453 [kcal/mol]    -351.36288313 [kJ/mol]
  Total SAPT2                    -128.79901994 [mEh]     -80.82260523 [kcal/mol]    -338.16178027 [kJ/mol]
  Total SAPT2+                   -129.30661063 [mEh]     -81.14112319 [kcal/mol]    -339.49445944 [kJ/mol]

  Special recipe for scaled SAPT0 (see Manual):
    Electrostatics sSAPT0        -124.71823579 [mEh]     -78.26187451 [kcal/mol]    -327.44768295 [kJ/mol]
    Exchange sSAPT0                24.36122754 [mEh]      15.28690107 [kcal/mol]      63.96039409 [kJ/mol]
    Induction sSAPT0              -31.26737438 [mEh]     -19.62057365 [kcal/mol]     -82.09248014 [kJ/mol]
    Dispersion sSAPT0              -2.15194587 [mEh]      -1.35036642 [kcal/mol]      -5.64993310 [kJ/mol]
  Total sSAPT0                   -133.77632850 [mEh]     -83.94591350 [kcal/mol]    -351.22970209 [kJ/mol]
  --------------------------------------------------------------------------------------------------------

*** Psi4 exiting successfully. Buy a developer a beer!
