                               Psi4 1.9 release

  ==> Input File <==

--------------------------------------------------------------------------
MEMORY 60 GB

molecule dimer {
1 1
Na     0.000000     0.000000     0.000000
--
0 1
O     -0.634954     2.413494    -0.469274
H     -0.282418     2.529735     0.411993
H      0.141916     2.156275    -1.092832
O      1.214648     0.775486     1.918368
H      0.880044     0.448486     2.755494
H      1.217297     1.754919     1.974001
O     -0.701755    -1.577387     1.746965
H      0.074402    -2.165534     1.642667
H     -1.200487    -1.862180     2.524719
O     -0.775218    -1.328748    -1.945209
H     -1.162383    -1.989746    -1.350365
H     -0.197621    -1.804248    -2.558987
O      1.999358    -1.188625    -0.266368
H      1.946447    -1.713828    -1.091922
H      2.822903    -0.667217    -0.248495
O     -2.490267     0.426443     0.351436
H     -2.601949     1.346809     0.579271
H     -3.125572    -0.045171     0.927670

units ang
no_reorient
no_com
symmetry c1
}

set {
basis        aug-cc-pVTZ
scf_type     df
}

energy("sapt2+")
--------------------------------------------------------------------------

  //              Dimer HF             //
    Molecular point group: c1
  Charge       = 1
  Multiplicity = 1
  Basis Set: AUG-CC-PVTZ
    Blend: AUG-CC-PVTZ
  Basis Set: (AUG-CC-PVTZ AUX)
    Blend: AUG-CC-PVTZ-JKFIT + DEF2-UNIVERSAL-JKFIT
  @DF-RHF Final Energy:  -618.13350144160802
    Total Energy =                       -618.1335014416080185
 Dipole X            :         24.5810543          -23.7971794            0.7838749
 Dipole Y            :         10.2533584          -11.0480873           -0.7947289
 Dipole Z            :        -27.3392972           28.6493025            1.3100053
 Magnitude           :                                                    1.7210950
  //            Monomer A HF           //
    Molecular point group: c1
  Multiplicity = 1
  Basis Set: AUG-CC-PVTZ
    Blend: AUG-CC-PVTZ
  Basis Set: (AUG-CC-PVTZ AUX)
    Blend: AUG-CC-PVTZ-JKFIT + DEF2-UNIVERSAL-JKFIT
  @DF-RHF Final Energy:  -161.67609616581748
    Total Energy =                       -161.6760961658174836
  //            Monomer B HF           //
    Molecular point group: c1

    Geometry (in Angstrom), charge = 0, multiplicity = 1:

       Center              X                  Y                   Z               Mass
    ------------   -----------------  -----------------  -----------------  -----------------
      Gh(NA)          0.000000000000     0.000000000000     0.000000000000    22.989769282000
         O           -0.634954000000     2.413494000000    -0.469274000000    15.994914619570
         H           -0.282418000000     2.529735000000     0.411993000000     1.007825032230
         H            0.141916000000     2.156275000000    -1.092832000000     1.007825032230
         O            1.214648000000     0.775486000000     1.918368000000    15.994914619570
         H            0.880044000000     0.448486000000     2.755494000000     1.007825032230
         H            1.217297000000     1.754919000000     1.974001000000     1.007825032230
         O           -0.701755000000    -1.577387000000     1.746965000000    15.994914619570
         H            0.074402000000    -2.165534000000     1.642667000000     1.007825032230
         H           -1.200487000000    -1.862180000000     2.524719000000     1.007825032230
         O           -0.775218000000    -1.328748000000    -1.945209000000    15.994914619570
         H           -1.162383000000    -1.989746000000    -1.350365000000     1.007825032230
         H           -0.197621000000    -1.804248000000    -2.558987000000     1.007825032230
         O            1.999358000000    -1.188625000000    -0.266368000000    15.994914619570
         H            1.946447000000    -1.713828000000    -1.091922000000     1.007825032230
         H            2.822903000000    -0.667217000000    -0.248495000000     1.007825032230
         O           -2.490267000000     0.426443000000     0.351436000000    15.994914619570
         H           -2.601949000000     1.346809000000     0.579271000000     1.007825032230
         H           -3.125572000000    -0.045171000000     0.927670000000     1.007825032230

  Charge       = 0
  Multiplicity = 1
  Basis Set: AUG-CC-PVTZ
    Blend: AUG-CC-PVTZ
  Basis Set: (AUG-CC-PVTZ AUX)
    Blend: AUG-CC-PVTZ-JKFIT + DEF2-UNIVERSAL-JKFIT

    Orbital Energies [Eh]
    ---------------------

    Doubly Occupied:

       1A    -20.549910     2A    -20.547648     3A    -20.545736
       4A    -20.539328     5A    -20.537545     6A    -20.521159
       7A     -1.328658     8A     -1.321198     9A     -1.319556
      10A     -1.315163    11A     -1.306660    12A     -1.299778
      13A     -0.700433    14A     -0.698089    15A     -0.694289
      16A     -0.685073    17A     -0.677153    18A     -0.664815
      19A     -0.564253    20A     -0.552135    21A     -0.546808
      22A     -0.543307    23A     -0.542152    24A     -0.531123
      25A     -0.495089    26A     -0.490008    27A     -0.481411
      28A     -0.474512    29A     -0.473474    30A     -0.458855

  @DF-RHF Final Energy:  -456.32668527467831

   => Energetics <=

    Nuclear Repulsion Energy =            268.0031739720439532
    One-Electron Energy =               -1165.8490739008050241
    Two-Electron Energy =                 441.5192146540828162
    Total Energy =                       -456.3266852746783115
 Dipole X            :         24.6639625          -23.7971794            0.8667832
 Dipole Y            :         10.3381645          -11.0480873           -0.7099228
 Dipole Z            :        -27.5280927           28.6493025            1.1212098
 Magnitude           :                                                    1.5850599

    SAPT Results
  --------------------------------------------------------------------------------------------------------
    Electrostatics               -117.14802472 [mEh]     -73.51149535 [kcal/mol]    -307.57209653 [kJ/mol]
      Elst10,r                   -123.26791159 [mEh]     -77.35178234 [kcal/mol]    -323.63985730 [kJ/mol]
      Elst12,r                      6.11988687 [mEh]       3.84028699 [kcal/mol]      16.06776077 [kJ/mol]

    Exchange                       32.73313401 [mEh]      20.54035170 [kcal/mol]      85.94083150 [kJ/mol]
      Exch10                       28.50627177 [mEh]      17.88795560 [kcal/mol]      74.84320621 [kJ/mol]
      Exch10(S^2)                  28.48173464 [mEh]      17.87255832 [kcal/mol]      74.77878400 [kJ/mol]
      Exch11(S^2)                  -0.69830201 [mEh]      -0.43819113 [kcal/mol]      -1.83339168 [kJ/mol]
      Exch12(S^2)                   4.92516425 [mEh]       3.09058723 [kcal/mol]      12.93101696 [kJ/mol]

    Induction                     -42.27080304 [mEh]     -26.52532937 [kcal/mol]    -110.98197810 [kJ/mol]
      Ind20,r                     -63.62016970 [mEh]     -39.92225921 [kcal/mol]    -167.03473255 [kJ/mol]
      Ind22                       -10.66178561 [mEh]      -6.69037148 [kcal/mol]     -27.99251427 [kJ/mol]
      Exch-Ind20,r                 25.95306305 [mEh]      16.28579294 [kcal/mol]      68.13975765 [kJ/mol]
      Exch-Ind22                    4.34934386 [mEh]       2.72925447 [kcal/mol]      11.41920072 [kJ/mol]
      delta HF,r (2)                1.70874537 [mEh]       1.07225391 [kcal/mol]       4.48631035 [kJ/mol]

    Dispersion                     -3.42553398 [mEh]      -2.14955502 [kcal/mol]      -8.99373821 [kJ/mol]
      Disp20                       -3.30016963 [mEh]      -2.07088771 [kcal/mol]      -8.66459417 [kJ/mol]
      Disp21                       -0.08927267 [mEh]      -0.05601944 [kcal/mol]      -0.23438535 [kJ/mol]
      Disp22 (SDQ)                 -0.22695538 [mEh]      -0.14241665 [kcal/mol]      -0.59587126 [kJ/mol]
      Disp22 (T)                   -0.30217127 [mEh]      -0.18961533 [kcal/mol]      -0.79335055 [kJ/mol]
      Est. Disp22 (T)              -0.33825724 [mEh]      -0.21225962 [kcal/mol]      -0.88809425 [kJ/mol]
      Exch-Disp20                   0.52912093 [mEh]       0.33202840 [kcal/mol]       1.38920682 [kJ/mol]

  Total HF                       -130.72000111 [mEh]     -82.02803911 [kcal/mol]    -343.20531564 [kJ/mol]
  Total SAPT0                    -133.49104981 [mEh]     -83.76689842 [kcal/mol]    -350.48070299 [kJ/mol]
  Total SAPT2                    -129.45674245 [mEh]     -81.23533233 [kcal/mol]    -339.88863048 [kJ/mol]
  Total SAPT2+                   -130.11122773 [mEh]     -81.64602805 [kcal/mol]    -341.60698135 [kJ/mol]

  Special recipe for scaled SAPT0 (see Manual):
    Electrostatics sSAPT0        -123.26791159 [mEh]     -77.35178234 [kcal/mol]    -323.63985730 [kJ/mol]
    Exchange sSAPT0                28.50627177 [mEh]      17.88795560 [kcal/mol]      74.84320621 [kJ/mol]
    Induction sSAPT0              -35.89122749 [mEh]     -22.52208527 [kcal/mol]     -94.23240478 [kJ/mol]
    Dispersion sSAPT0              -2.76968000 [mEh]      -1.73800044 [kcal/mol]      -7.27179383 [kJ/mol]
  Total sSAPT0                   -133.42254731 [mEh]     -83.72391245 [kcal/mol]    -350.30084970 [kJ/mol]
  --------------------------------------------------------------------------------------------------------

*** Psi4 exiting successfully. Buy a developer a beer!
