                               Psi4 1.9 release

  ==> Input File <==

--------------------------------------------------------------------------
MEMORY 60 GB

molecule dimer {
1 1
Na     0.000000     0.000000     0.000000
--
0 1
O      1.285259    -1.153262    -1.611448
H      1.153437    -0.457589    -2.307772
H      2.233554    -1.295964    -1.675455
O      0.015079     2.249596    -1.029439
H      0.758716     2.786048    -0.799301
H     -0.644652     2.867532    -1.422312
O      0.077834    -2.168857     1.191453
H      0.847867    -2.443931     0.714386
H     -0.420080    -2.971254     1.529163
O      2.051840     0.606902     1.147426
H      2.621342     1.274506     0.769810
H      1.731269     1.021384     1.952136
O     -2.067947     0.408587     0.901339
H     -1.890616     1.227864     1.441286
H     -2.586505    -0.220929     1.396051

units ang
no_reorient
no_com
symmetry c1
}

set {
basis        aug-cc-pVTZ
scf_type     df
}

energy("sapt2+")
--------------------------------------------------------------------------

  //              Dimer HF             //
    Molecular point group: c1
  Charge       = 1
  Multiplicity = 1
  Basis Set: AUG-CC-PVTZ
    Blend: AUG-CC-PVTZ
  Basis Set: (AUG-CC-PVTZ AUX)
    Blend: AUG-CC-PVTZ-JKFIT + DEF2-UNIVERSAL-JKFIT
  @DF-RHF Final Energy:  -542.08761738182238
    Total Energy =                       -542.0876173818223833
 Dipole X            :        -26.9708961           27.7805841            0.8096880
 Dipole Y            :         -1.2483400            2.5159719            1.2676319
 Dipole Z            :        -11.7752180           12.0803388            0.3051208
 Magnitude           :                                                    1.5347912
  //            Monomer A HF           //
    Molecular point group: c1
  Multiplicity = 1
  Basis Set: AUG-CC-PVTZ
    Blend: AUG-CC-PVTZ
  Basis Set: (AUG-CC-PVTZ AUX)
    Blend: AUG-CC-PVTZ-JKFIT + DEF2-UNIVERSAL-JKFIT
  @DF-RHF Final Energy:  -161.67609081947654
    Total Energy =                       -161.6760908194765420
  //            Monomer B HF           //
    Molecular point group: c1

    Geometry (in Angstrom), charge = 0, multiplicity = 1:

       Center              X                  Y                   Z               Mass
    ------------   -----------------  -----------------  -----------------  -----------------
      Gh(NA)          0.000000000000     0.000000000000     0.000000000000    22.989769282000
         O            1.285259000000    -1.153262000000    -1.611448000000    15.994914619570
         H            1.153437000000    -0.457589000000    -2.307772000000     1.007825032230
         H            2.233554000000    -1.295964000000    -1.675455000000     1.007825032230
         O            0.015079000000     2.249596000000    -1.029439000000    15.994914619570
         H            0.758716000000     2.786048000000    -0.799301000000     1.007825032230
         H           -0.644652000000     2.867532000000    -1.422312000000     1.007825032230
         O            0.077834000000    -2.168857000000     1.191453000000    15.994914619570
         H            0.847867000000    -2.443931000000     0.714386000000     1.007825032230
         H           -0.420080000000    -2.971254000000     1.529163000000     1.007825032230
         O            2.051840000000     0.606902000000     1.147426000000    15.994914619570
         H            2.621342000000     1.274506000000     0.769810000000     1.007825032230
         H            1.731269000000     1.021384000000     1.952136000000     1.007825032230
         O           -2.067947000000     0.408587000000     0.901339000000    15.994914619570
         H           -1.890616000000     1.227864000000     1.441286000000     1.007825032230
         H           -2.586505000000    -0.220929000000     1.396051000000     1.007825032230

  Charge       = 0
  Multiplicity = 1
  Basis Set: AUG-CC-PVTZ
    Blend: AUG-CC-PVTZ
  Basis Set: (AUG-CC-PVTZ AUX)
    Blend: AUG-CC-PVTZ-JKFIT + DEF2-UNIVERSAL-JKFIT

    Orbital Energies [Eh]
    ---------------------

    Doubly Occupied:

       1A    -20.556625     2A    -20.546728     3A    -20.541679
       4A    -20.531769     5A    -20.525453     6A     -1.337579
       7A     -1.333182     8A     -1.316618     9A     -1.304857
      10A     -1.299283    11A     -0.704038    12A     -0.693854
      13A     -0.684406    14A     -0.677220    15A     -0.669663
      16A     -0.567888    17A     -0.564704    18A     -0.557791
      19A     -0.532219    20A     -0.527026    21A     -0.498051
      22A     -0.488967    23A     -0.477747    24A     -0.470439
      25A     -0.463549

  @DF-RHF Final Energy:  -380.27668855415948

   => Energetics <=

    Nuclear Repulsion Energy =            184.7995612268734646
    One-Electron Energy =                -894.4098118348673552
    Two-Electron Energy =                 329.3335620538343846
    Total Energy =                       -380.2766885541594775
 Dipole X            :        -27.1066293           27.7805841            0.6739547
 Dipole Y            :         -1.2816282            2.5159719            1.2343437
 Dipole Z            :        -11.8652777           12.0803388            0.2150611
 Magnitude           :                                                    1.4226984

    SAPT Results
  --------------------------------------------------------------------------------------------------------
    Electrostatics               -123.77296582 [mEh]     -77.66870865 [kcal/mol]    -324.96587699 [kJ/mol]
      Elst10,r                   -131.08924065 [mEh]     -82.25974042 [kcal/mol]    -344.17475390 [kJ/mol]
      Elst12,r                      7.31627483 [mEh]       4.59103177 [kcal/mol]      19.20887691 [kJ/mol]

    Exchange                       32.62548322 [mEh]      20.47279980 [kcal/mol]      85.65819438 [kJ/mol]
      Exch10                       28.97964817 [mEh]      18.18500377 [kcal/mol]      76.08605579 [kJ/mol]
      Exch10(S^2)                  28.95272278 [mEh]      18.16810784 [kcal/mol]      76.01536319 [kJ/mol]
      Exch11(S^2)                  -0.61964719 [mEh]      -0.38883448 [kcal/mol]      -1.62688347 [kJ/mol]
      Exch12(S^2)                   4.26548223 [mEh]       2.67663051 [kcal/mol]      11.19902206 [kJ/mol]

    Induction                     -37.93929178 [mEh]     -23.80726502 [kcal/mol]     -99.60959685 [kJ/mol]
      Ind20,r                     -60.91953733 [mEh]     -38.22758681 [kcal/mol]    -159.94422322 [kJ/mol]
      Ind22                        -9.14079412 [mEh]      -5.73593491 [kcal/mol]     -23.99915166 [kJ/mol]
      Exch-Ind20,r                 26.19124621 [mEh]      16.43525513 [kcal/mol]      68.76510744 [kJ/mol]
      Exch-Ind22                    3.92991805 [mEh]       2.46606081 [kcal/mol]      10.31799842 [kJ/mol]
      delta HF,r (2)                1.99987541 [mEh]       1.25494077 [kcal/mol]       5.25067216 [kJ/mol]

    Dispersion                     -2.92858500 [mEh]      -1.83771483 [kcal/mol]      -7.68899887 [kJ/mol]
      Disp20                       -2.86832909 [mEh]      -1.79990368 [kcal/mol]      -7.53079698 [kJ/mol]
      Disp21                       -0.08745580 [mEh]      -0.05487935 [kcal/mol]      -0.22961518 [kJ/mol]
      Disp22 (SDQ)                 -0.18411691 [mEh]      -0.11553511 [kcal/mol]      -0.48339889 [kJ/mol]
      Disp22 (T)                   -0.24906866 [mEh]      -0.15629294 [kcal/mol]      -0.65392967 [kJ/mol]
      Est. Disp22 (T)              -0.28356580 [mEh]      -0.17794022 [kcal/mol]      -0.74450190 [kJ/mol]
      Exch-Disp20                   0.49488260 [mEh]       0.31054352 [kcal/mol]       1.29931408 [kJ/mol]

  Total HF                       -134.83800819 [mEh]     -84.61212756 [kcal/mol]    -354.01714172 [kJ/mol]
  Total SAPT0                    -137.21145467 [mEh]     -86.10148772 [kcal/mol]    -360.24862461 [kJ/mol]
  Total SAPT2                    -131.46022087 [mEh]     -82.49253402 [kcal/mol]    -345.14876236 [kJ/mol]
  Total SAPT2+                   -132.01535939 [mEh]     -82.84088870 [kcal/mol]    -346.60627833 [kJ/mol]

  Special recipe for scaled SAPT0 (see Manual):
    Electrostatics sSAPT0        -131.08924065 [mEh]     -82.25974042 [kcal/mol]    -344.17475390 [kJ/mol]
    Exchange sSAPT0                28.97964817 [mEh]      18.18500377 [kcal/mol]      76.08605579 [kJ/mol]
    Induction sSAPT0              -32.65527590 [mEh]     -20.49149500 [kcal/mol]     -85.73641506 [kJ/mol]
    Dispersion sSAPT0              -2.37206451 [mEh]      -1.48849295 [kcal/mol]      -6.22785452 [kJ/mol]
  Total sSAPT0                   -137.13693289 [mEh]     -86.05472459 [kcal/mol]    -360.05296769 [kJ/mol]
  --------------------------------------------------------------------------------------------------------

*** Psi4 exiting successfully. Buy a developer a beer!
