                               Psi4 1.9 release

  ==> Input File <==

--------------------------------------------------------------------------
MEMORY 60 GB

molecule dimer {
1 1
Na     0.000000     0.000000     0.000000
--
0 1
O     -0.763534     0.932846     2.231461
H     -0.733128     1.900005     2.285331
H     -0.178159     0.502091     2.866138
O      0.452399     2.241951    -0.962680
H      1.205593     2.615208    -0.515886
H      0.800151     2.215705    -1.892096
O      0.346113    -2.463872     0.347284
H      0.268206    -3.107115    -0.361290
H     -0.089641    -3.005871     1.016265
O      2.050775    -0.213605    -1.193701
H      2.004919    -1.173998    -1.292082
H      2.563798    -0.024846    -0.341802
O     -1.677611    -0.559730    -1.506099
H     -2.457862    -0.155870    -2.009591
H     -1.026711    -0.660387    -2.183118

units ang
no_reorient
no_com
symmetry c1
}

set {
basis        aug-cc-pVTZ
scf_type     df
}

energy("sapt2+")
--------------------------------------------------------------------------

  //              Dimer HF             //
    Molecular point group: c1
  Charge       = 1
  Multiplicity = 1
  Basis Set: AUG-CC-PVTZ
    Blend: AUG-CC-PVTZ
  Basis Set: (AUG-CC-PVTZ AUX)
    Blend: AUG-CC-PVTZ-JKFIT + DEF2-UNIVERSAL-JKFIT
  @DF-RHF Final Energy:  -542.07200575072488
    Total Energy =                       -542.0720057507248839
 Dipole X            :         -9.6444212           10.6246110            0.9801897
 Dipole Y            :          2.0814637           -2.6349547           -0.5534910
 Dipole Z            :         20.7311198          -20.9722013           -0.2410816
 Magnitude           :                                                    1.1511927
  //            Monomer A HF           //
    Molecular point group: c1
  Multiplicity = 1
  Basis Set: AUG-CC-PVTZ
    Blend: AUG-CC-PVTZ
  Basis Set: (AUG-CC-PVTZ AUX)
    Blend: AUG-CC-PVTZ-JKFIT + DEF2-UNIVERSAL-JKFIT
  @DF-RHF Final Energy:  -161.67609074206331
    Total Energy =                       -161.6760907420633089
  //            Monomer B HF           //
    Molecular point group: c1

    Geometry (in Angstrom), charge = 0, multiplicity = 1:

       Center              X                  Y                   Z               Mass
    ------------   -----------------  -----------------  -----------------  -----------------
      Gh(NA)          0.000000000000     0.000000000000     0.000000000000    22.989769282000
         O           -0.763534000000     0.932846000000     2.231461000000    15.994914619570
         H           -0.733128000000     1.900005000000     2.285331000000     1.007825032230
         H           -0.178159000000     0.502091000000     2.866138000000     1.007825032230
         O            0.452399000000     2.241951000000    -0.962680000000    15.994914619570
         H            1.205593000000     2.615208000000    -0.515886000000     1.007825032230
         H            0.800151000000     2.215705000000    -1.892096000000     1.007825032230
         O            0.346113000000    -2.463872000000     0.347284000000    15.994914619570
         H            0.268206000000    -3.107115000000    -0.361290000000     1.007825032230
         H           -0.089641000000    -3.005871000000     1.016265000000     1.007825032230
         O            2.050775000000    -0.213605000000    -1.193701000000    15.994914619570
         H            2.004919000000    -1.173998000000    -1.292082000000     1.007825032230
         H            2.563798000000    -0.024846000000    -0.341802000000     1.007825032230
         O           -1.677611000000    -0.559730000000    -1.506099000000    15.994914619570
         H           -2.457862000000    -0.155870000000    -2.009591000000     1.007825032230
         H           -1.026711000000    -0.660387000000    -2.183118000000     1.007825032230

  Charge       = 0
  Multiplicity = 1
  Basis Set: AUG-CC-PVTZ
    Blend: AUG-CC-PVTZ
  Basis Set: (AUG-CC-PVTZ AUX)
    Blend: AUG-CC-PVTZ-JKFIT + DEF2-UNIVERSAL-JKFIT

    Orbital Energies [Eh]
    ---------------------

    Doubly Occupied:

       1A    -20.559987     2A    -20.547819     3A    -20.538981
       4A    -20.538768     5A    -20.538488     6A     -1.346611
       7A     -1.318667     8A     -1.316775     9A     -1.313081
      10A     -1.312215    11A     -0.701716    12A     -0.690059
      13A     -0.681924    14A     -0.670552    15A     -0.669157
      16A     -0.591391    17A     -0.559805    18A     -0.552804
      19A     -0.549963    20A     -0.538918    21A     -0.500101
      22A     -0.489802    23A     -0.480085    24A     -0.475148
      25A     -0.469934

  @DF-RHF Final Energy:  -380.27236363281497

   => Energetics <=

    Nuclear Repulsion Energy =            183.1770881094199979
    One-Electron Energy =                -890.9933958627237871
    Two-Electron Energy =                 327.5439441204888453
    Total Energy =                       -380.2723636328149723
 Dipole X            :         -9.6908454           10.6246110            0.9337656
 Dipole Y            :          2.0968524           -2.6349547           -0.5381023
 Dipole Z            :         20.8976905          -20.9722013           -0.0745109
 Magnitude           :                                                    1.0802889

    SAPT Results
  --------------------------------------------------------------------------------------------------------
    Electrostatics               -113.03242062 [mEh]     -70.92891478 [kcal/mol]    -296.76657945 [kJ/mol]
      Elst10,r                   -118.49366202 [mEh]     -74.35589550 [kcal/mol]    -311.10506676 [kJ/mol]
      Elst12,r                      5.46124140 [mEh]       3.42698072 [kcal/mol]      14.33848731 [kJ/mol]

    Exchange                       30.39684389 [mEh]      19.07430752 [kcal/mol]      79.80690265 [kJ/mol]
      Exch10                       26.59927265 [mEh]      16.69129559 [kcal/mol]      69.83638073 [kJ/mol]
      Exch10(S^2)                  26.57368963 [mEh]      16.67524200 [kcal/mol]      69.76921252 [kJ/mol]
      Exch11(S^2)                  -0.56175418 [mEh]      -0.35250607 [kcal/mol]      -1.47488539 [kJ/mol]
      Exch12(S^2)                   4.35932542 [mEh]       2.73551800 [kcal/mol]      11.44540731 [kJ/mol]

    Induction                     -37.02848379 [mEh]     -23.23572438 [kcal/mol]     -97.21827079 [kJ/mol]
      Ind20,r                     -58.50894935 [mEh]     -36.71492002 [kcal/mol]    -153.61522536 [kJ/mol]
      Ind22                        -9.37018196 [mEh]      -5.87987795 [kcal/mol]     -24.60140936 [kJ/mol]
      Exch-Ind20,r                 24.96844129 [mEh]      15.66793346 [kcal/mol]      65.55463358 [kJ/mol]
      Exch-Ind22                    3.99868466 [mEh]       2.50921251 [kcal/mol]      10.49854513 [kJ/mol]
      delta HF,r (2)                1.88352158 [mEh]       1.18192763 [kcal/mol]       4.94518522 [kJ/mol]

    Dispersion                     -2.77532739 [mEh]      -1.74154423 [kcal/mol]      -7.28662105 [kJ/mol]
      Disp20                       -2.68576593 [mEh]      -1.68534357 [kcal/mol]      -7.05147748 [kJ/mol]
      Disp21                       -0.09312246 [mEh]      -0.05843523 [kcal/mol]      -0.24449299 [kJ/mol]
      Disp22 (SDQ)                 -0.17518984 [mEh]      -0.10993329 [kcal/mol]      -0.45996087 [kJ/mol]
      Disp22 (T)                   -0.23485769 [mEh]      -0.14737543 [kcal/mol]      -0.61661879 [kJ/mol]
      Est. Disp22 (T)              -0.26643244 [mEh]      -0.16718888 [kcal/mol]      -0.69951827 [kJ/mol]
      Exch-Disp20                   0.44518329 [mEh]       0.27935673 [kcal/mol]       1.16882857 [kJ/mol]

  Total HF                       -123.55137585 [mEh]     -77.52965884 [kcal/mol]    -324.38409259 [kJ/mol]
  Total SAPT0                    -125.79195849 [mEh]     -78.93564568 [kcal/mol]    -330.26674151 [kJ/mol]
  Total SAPT2                    -121.90464315 [mEh]     -76.49631847 [kcal/mol]    -320.06059650 [kJ/mol]
  Total SAPT2+                   -122.43938790 [mEh]     -76.83187587 [kcal/mol]    -321.46456864 [kJ/mol]

  Special recipe for scaled SAPT0 (see Manual):
    Electrostatics sSAPT0        -118.49366202 [mEh]     -74.35589550 [kcal/mol]    -311.10506676 [kJ/mol]
    Exchange sSAPT0                26.59927265 [mEh]      16.69129559 [kcal/mol]      69.83638073 [kJ/mol]
    Induction sSAPT0              -31.58480419 [mEh]     -19.81976385 [kcal/mol]     -82.92589197 [kJ/mol]
    Dispersion sSAPT0              -2.23929564 [mEh]      -1.40517923 [kcal/mol]      -5.87926990 [kJ/mol]
  Total sSAPT0                   -125.71848919 [mEh]     -78.88954300 [kcal/mol]    -330.07384790 [kJ/mol]
  --------------------------------------------------------------------------------------------------------

*** Psi4 exiting successfully. Buy a developer a beer!
