                               Psi4 1.9 release

  ==> Input File <==

--------------------------------------------------------------------------
MEMORY 60 GB

molecule dimer {
1 1
Na     0.000000     0.000000     0.000000
--
0 1
O      0.750555     2.441534    -0.170757
H      0.148617     2.870969    -0.807058
H      0.358211     2.667139     0.740228
O      1.251321     0.152119     2.082513
H      1.280918    -0.781132     2.220682
H      0.570564     0.591799     2.711229
O     -0.302086    -0.400122    -2.302121
H     -0.982672    -0.980944    -2.721235
H      0.585698    -0.559537    -2.600255
O     -1.803909     0.577099     1.492035
H     -2.609777     1.083098     1.230541
H     -1.668404     0.630768     2.471206
O      0.447066    -2.192510    -0.124007
H      0.847688    -2.383423    -0.929975
H     -0.452703    -2.381137    -0.326958

units ang
no_reorient
no_com
symmetry c1
}

set {
basis        aug-cc-pVTZ
scf_type     df
}

energy("sapt2+")
--------------------------------------------------------------------------

  //              Dimer HF             //
    Molecular point group: c1
  Charge       = 1
  Multiplicity = 1
  Basis Set: AUG-CC-PVTZ
    Blend: AUG-CC-PVTZ
  Basis Set: (AUG-CC-PVTZ AUX)
    Blend: AUG-CC-PVTZ-JKFIT + DEF2-UNIVERSAL-JKFIT
  @DF-RHF Final Energy:  -542.05911852389261
    Total Energy =                       -542.0591185238926073
 Dipole X            :         -3.2980272            1.5528182           -1.7452090
 Dipole Y            :        -10.4752666           10.1715643           -0.3037024
 Dipole Z            :        -18.5646661           18.5376634           -0.0270027
 Magnitude           :                                                    1.7716430
  //            Monomer A HF           //
    Molecular point group: c1
  Multiplicity = 1
  Basis Set: AUG-CC-PVTZ
    Blend: AUG-CC-PVTZ
  Basis Set: (AUG-CC-PVTZ AUX)
    Blend: AUG-CC-PVTZ-JKFIT + DEF2-UNIVERSAL-JKFIT
  @DF-RHF Final Energy:  -161.67609161833397
    Total Energy =                       -161.6760916183339702
  //            Monomer B HF           //
    Molecular point group: c1

    Geometry (in Angstrom), charge = 0, multiplicity = 1:

       Center              X                  Y                   Z               Mass
    ------------   -----------------  -----------------  -----------------  -----------------
      Gh(NA)          0.000000000000     0.000000000000     0.000000000000    22.989769282000
         O            0.750555000000     2.441534000000    -0.170757000000    15.994914619570
         H            0.148617000000     2.870969000000    -0.807058000000     1.007825032230
         H            0.358211000000     2.667139000000     0.740228000000     1.007825032230
         O            1.251321000000     0.152119000000     2.082513000000    15.994914619570
         H            1.280918000000    -0.781132000000     2.220682000000     1.007825032230
         H            0.570564000000     0.591799000000     2.711229000000     1.007825032230
         O           -0.302086000000    -0.400122000000    -2.302121000000    15.994914619570
         H           -0.982672000000    -0.980944000000    -2.721235000000     1.007825032230
         H            0.585698000000    -0.559537000000    -2.600255000000     1.007825032230
         O           -1.803909000000     0.577099000000     1.492035000000    15.994914619570
         H           -2.609777000000     1.083098000000     1.230541000000     1.007825032230
         H           -1.668404000000     0.630768000000     2.471206000000     1.007825032230
         O            0.447066000000    -2.192510000000    -0.124007000000    15.994914619570
         H            0.847688000000    -2.383423000000    -0.929975000000     1.007825032230
         H           -0.452703000000    -2.381137000000    -0.326958000000     1.007825032230

  Charge       = 0
  Multiplicity = 1
  Basis Set: AUG-CC-PVTZ
    Blend: AUG-CC-PVTZ
  Basis Set: (AUG-CC-PVTZ AUX)
    Blend: AUG-CC-PVTZ-JKFIT + DEF2-UNIVERSAL-JKFIT

    Orbital Energies [Eh]
    ---------------------

    Doubly Occupied:

       1A    -20.568227     2A    -20.554218     3A    -20.537641
       4A    -20.537018     5A    -20.535104     6A     -1.346955
       7A     -1.333214     8A     -1.331610     9A     -1.304019
      10A     -1.297708    11A     -0.720406    12A     -0.712177
      13A     -0.699749    14A     -0.681915    15A     -0.659625
      16A     -0.575809    17A     -0.564264    18A     -0.552422
      19A     -0.541518    20A     -0.531965    21A     -0.509331
      22A     -0.505148    23A     -0.476175    24A     -0.471829
      25A     -0.466894

  @DF-RHF Final Energy:  -380.26238294065911

   => Energetics <=

    Nuclear Repulsion Energy =            186.8441336712632790
    One-Electron Energy =                -898.1831410571159040
    Two-Electron Energy =                 331.0766244451934881
    Total Energy =                       -380.2623829406591085
 Dipole X            :         -3.2410719            1.5528182           -1.6882537
 Dipole Y            :        -10.4948031           10.1715643           -0.3232388
 Dipole Z            :        -18.6626625           18.5376634           -0.1249992
 Magnitude           :                                                    1.7234583

    SAPT Results
  --------------------------------------------------------------------------------------------------------
    Electrostatics               -117.18577406 [mEh]     -73.53518341 [kcal/mol]    -307.67120740 [kJ/mol]
      Elst10,r                   -122.09869216 [mEh]     -76.61808607 [kcal/mol]    -320.57007210 [kJ/mol]
      Elst12,r                      4.91291811 [mEh]       3.08290265 [kcal/mol]      12.89886471 [kJ/mol]

    Exchange                       38.71823086 [mEh]      24.29605667 [kcal/mol]     101.65470113 [kJ/mol]
      Exch10                       34.18717869 [mEh]      21.45277851 [kcal/mol]      89.75842529 [kJ/mol]
      Exch10(S^2)                  34.13272593 [mEh]      21.41860889 [kcal/mol]      89.61545959 [kJ/mol]
      Exch11(S^2)                  -0.75711166 [mEh]      -0.47509474 [kcal/mol]      -1.98779639 [kJ/mol]
      Exch12(S^2)                   5.28816383 [mEh]       3.31837290 [kcal/mol]      13.88407222 [kJ/mol]

    Induction                     -38.41434270 [mEh]     -24.10536397 [kcal/mol]    -100.85684286 [kJ/mol]
      Ind20,r                     -66.58754793 [mEh]     -41.78431716 [kcal/mol]    -174.82558299 [kJ/mol]
      Ind22                       -10.80815022 [mEh]      -6.78221666 [kcal/mol]     -28.37679450 [kJ/mol]
      Exch-Ind20,r                 31.58218628 [mEh]      19.81812110 [kcal/mol]      82.91901866 [kJ/mol]
      Exch-Ind22                    5.12625895 [mEh]       3.21677606 [kcal/mol]      13.45899102 [kJ/mol]
      delta HF,r (2)                2.27291021 [mEh]       1.42627269 [kcal/mol]       5.96752494 [kJ/mol]

    Dispersion                     -3.12316790 [mEh]      -1.95981745 [kcal/mol]      -8.19987620 [kJ/mol]
      Disp20                       -3.08865727 [mEh]      -1.93816170 [kcal/mol]      -8.10926855 [kJ/mol]
      Disp21                       -0.10395938 [mEh]      -0.06523550 [kcal/mol]      -0.27294531 [kJ/mol]
      Disp22 (SDQ)                 -0.20420721 [mEh]      -0.12814196 [kcal/mol]      -0.53614596 [kJ/mol]
      Disp22 (T)                   -0.27143608 [mEh]      -0.17032871 [kcal/mol]      -0.71265533 [kJ/mol]
      Est. Disp22 (T)              -0.30877603 [mEh]      -0.19375988 [kcal/mol]      -0.81069135 [kJ/mol]
      Exch-Disp20                   0.58243199 [mEh]       0.36548159 [kcal/mol]       1.52917499 [kJ/mol]

  Total HF                       -120.64396490 [mEh]     -75.70523093 [kcal/mol]    -316.75068620 [kJ/mol]
  Total SAPT0                    -123.15019018 [mEh]     -77.27791103 [kcal/mol]    -323.33077977 [kJ/mol]
  Total SAPT2                    -119.38811117 [mEh]     -74.91717082 [kcal/mol]    -313.45344270 [kJ/mol]
  Total SAPT2+                   -120.00505380 [mEh]     -75.30430816 [kcal/mol]    -315.07322533 [kJ/mol]

  Special recipe for scaled SAPT0 (see Manual):
    Electrostatics sSAPT0        -122.09869216 [mEh]     -76.61808607 [kcal/mol]    -320.57007210 [kJ/mol]
    Exchange sSAPT0                34.18717869 [mEh]      21.45277851 [kcal/mol]      89.75842529 [kJ/mol]
    Induction sSAPT0              -32.58105870 [mEh]     -20.44492300 [kcal/mol]     -85.54155783 [kJ/mol]
    Dispersion sSAPT0              -2.50343333 [mEh]      -1.57092813 [kcal/mol]      -6.57276329 [kJ/mol]
  Total sSAPT0                   -122.99600550 [mEh]     -77.18115868 [kcal/mol]    -322.92596794 [kJ/mol]
  --------------------------------------------------------------------------------------------------------

*** Psi4 exiting successfully. Buy a developer a beer!
