                               Psi4 1.9 release

  ==> Input File <==

--------------------------------------------------------------------------
MEMORY 60 GB

molecule dimer {
1 1
Na     0.000000     0.000000     0.000000
--
0 1
O     -1.136205     2.109216     0.011475
H     -1.817514     2.445570     0.580069
H     -0.451115     2.773422    -0.131302
O      1.252024    -2.158597    -0.042907
H      1.513019    -2.709178     0.698471
H      1.692694    -2.571460    -0.772312
O      2.180151     1.061963    -0.494664
H      2.109145     1.159492    -1.466466
H      2.569159     1.827540    -0.098947
O     -0.175210     0.603986    -2.316960
H     -0.687306    -0.098022    -2.722072
H     -0.718872     1.408419    -2.299209
O     -0.000383    -0.188447     2.289591
H      0.693352    -0.570890     2.866500
H     -0.819570    -0.668426     2.496017

units ang
no_reorient
no_com
symmetry c1
}

set {
basis        aug-cc-pVTZ
scf_type     df
}

energy("sapt2+")
--------------------------------------------------------------------------

  //              Dimer HF             //
    Molecular point group: c1
  Charge       = 1
  Multiplicity = 1
  Basis Set: AUG-CC-PVTZ
    Blend: AUG-CC-PVTZ
  Basis Set: (AUG-CC-PVTZ AUX)
    Blend: AUG-CC-PVTZ-JKFIT + DEF2-UNIVERSAL-JKFIT
  @DF-RHF Final Energy:  -542.09656276541932
    Total Energy =                       -542.0965627654193213
 Dipole X            :        -39.7433170           39.7711912            0.0278742
 Dipole Y            :        -27.0144423           27.2525625            0.2381202
 Dipole Z            :         10.1722431           -9.9720300            0.2002131
 Magnitude           :                                                    0.3123516
  //            Monomer A HF           //
    Molecular point group: c1
  Multiplicity = 1
  Basis Set: AUG-CC-PVTZ
    Blend: AUG-CC-PVTZ
  Basis Set: (AUG-CC-PVTZ AUX)
    Blend: AUG-CC-PVTZ-JKFIT + DEF2-UNIVERSAL-JKFIT
  @DF-RHF Final Energy:  -161.67608920260886
    Total Energy =                       -161.6760892026088641
  //            Monomer B HF           //
    Molecular point group: c1

    Geometry (in Angstrom), charge = 0, multiplicity = 1:

       Center              X                  Y                   Z               Mass
    ------------   -----------------  -----------------  -----------------  -----------------
      Gh(NA)          0.000000000000     0.000000000000     0.000000000000    22.989769282000
         O           -1.136205000000     2.109216000000     0.011475000000    15.994914619570
         H           -1.817514000000     2.445570000000     0.580069000000     1.007825032230
         H           -0.451115000000     2.773422000000    -0.131302000000     1.007825032230
         O            1.252024000000    -2.158597000000    -0.042907000000    15.994914619570
         H            1.513019000000    -2.709178000000     0.698471000000     1.007825032230
         H            1.692694000000    -2.571460000000    -0.772312000000     1.007825032230
         O            2.180151000000     1.061963000000    -0.494664000000    15.994914619570
         H            2.109145000000     1.159492000000    -1.466466000000     1.007825032230
         H            2.569159000000     1.827540000000    -0.098947000000     1.007825032230
         O           -0.175210000000     0.603986000000    -2.316960000000    15.994914619570
         H           -0.687306000000    -0.098022000000    -2.722072000000     1.007825032230
         H           -0.718872000000     1.408419000000    -2.299209000000     1.007825032230
         O           -0.000383000000    -0.188447000000     2.289591000000    15.994914619570
         H            0.693352000000    -0.570890000000     2.866500000000     1.007825032230
         H           -0.819570000000    -0.668426000000     2.496017000000     1.007825032230

  Charge       = 0
  Multiplicity = 1
  Basis Set: AUG-CC-PVTZ
    Blend: AUG-CC-PVTZ
  Basis Set: (AUG-CC-PVTZ AUX)
    Blend: AUG-CC-PVTZ-JKFIT + DEF2-UNIVERSAL-JKFIT

    Orbital Energies [Eh]
    ---------------------

    Doubly Occupied:

       1A    -20.541975     2A    -20.538339     3A    -20.536510
       4A    -20.534558     5A    -20.522459     6A     -1.328673
       7A     -1.326341     8A     -1.316278     9A     -1.311683
      10A     -1.304514    11A     -0.710445    12A     -0.690675
      13A     -0.686560    14A     -0.684654    15A     -0.679642
      16A     -0.557082    17A     -0.552767    18A     -0.547017
      19A     -0.543733    20A     -0.526093    21A     -0.486401
      22A     -0.479377    23A     -0.475690    24A     -0.475271
      25A     -0.463514

  @DF-RHF Final Energy:  -380.28178418429627

   => Energetics <=

    Nuclear Repulsion Energy =            188.1118318872473196
    One-Electron Energy =                -901.1467257039031438
    Two-Electron Energy =                 332.7531096323594966
    Total Energy =                       -380.2817841842962707
 Dipole X            :        -39.9546887           39.7711912           -0.1834976
 Dipole Y            :        -27.1719286           27.2525625            0.0806339
 Dipole Z            :         10.1809234           -9.9720300            0.2088934
 Magnitude           :                                                    0.2894989

    SAPT Results
  --------------------------------------------------------------------------------------------------------
    Electrostatics               -127.21698362 [mEh]     -79.82986245 [kcal/mol]    -334.00814448 [kJ/mol]
      Elst10,r                   -134.73089780 [mEh]     -84.54491478 [kcal/mol]    -353.73592344 [kJ/mol]
      Elst12,r                      7.51391418 [mEh]       4.71505233 [kcal/mol]      19.72777896 [kJ/mol]

    Exchange                       31.71092365 [mEh]      19.89890501 [kcal/mol]      83.25701857 [kJ/mol]
      Exch10                       28.13711862 [mEh]      17.65630850 [kcal/mol]      73.87399476 [kJ/mol]
      Exch10(S^2)                  28.10596835 [mEh]      17.63676141 [kcal/mol]      73.79220973 [kJ/mol]
      Exch11(S^2)                  -0.59081766 [mEh]      -0.37074368 [kcal/mol]      -1.55119155 [kJ/mol]
      Exch12(S^2)                   4.16462269 [mEh]       2.61334019 [kcal/mol]      10.93421536 [kJ/mol]

    Induction                     -37.24299197 [mEh]     -23.37033029 [kcal/mol]     -97.78146195 [kJ/mol]
      Ind20,r                     -59.40926295 [mEh]     -37.27987533 [kcal/mol]    -155.97899837 [kJ/mol]
      Ind22                        -8.98599215 [mEh]      -5.63879520 [kcal/mol]     -23.59271913 [kJ/mol]
      Exch-Ind20,r                 25.37820686 [mEh]      15.92506523 [kcal/mol]      66.63047294 [kJ/mol]
      Exch-Ind22                    3.83859951 [mEh]       2.40875756 [kcal/mol]      10.07824162 [kJ/mol]
      delta HF,r (2)                1.93545675 [mEh]       1.21451745 [kcal/mol]       5.08154099 [kJ/mol]

    Dispersion                     -2.85232131 [mEh]      -1.78985864 [kcal/mol]      -7.48876856 [kJ/mol]
      Disp20                       -2.78728889 [mEh]      -1.74905019 [kcal/mol]      -7.31802597 [kJ/mol]
      Disp21                       -0.08390389 [mEh]      -0.05265048 [kcal/mol]      -0.22028963 [kJ/mol]
      Disp22 (SDQ)                 -0.18162903 [mEh]      -0.11397393 [kcal/mol]      -0.47686694 [kJ/mol]
      Disp22 (T)                   -0.23862815 [mEh]      -0.14974142 [kcal/mol]      -0.62651812 [kJ/mol]
      Est. Disp22 (T)              -0.27545546 [mEh]      -0.17285091 [kcal/mol]      -0.72320820 [kJ/mol]
      Exch-Disp20                   0.47595595 [mEh]       0.29866687 [kcal/mol]       1.24962218 [kJ/mol]

  Total HF                       -138.68937851 [mEh]     -87.02889893 [kcal/mol]    -364.12891312 [kJ/mol]
  Total SAPT0                    -141.00071145 [mEh]     -88.47928225 [kcal/mol]    -370.19731692 [kJ/mol]
  Total SAPT2                    -135.06038488 [mEh]     -84.75167105 [kcal/mol]    -354.60099166 [kJ/mol]
  Total SAPT2+                   -135.60137325 [mEh]     -85.09114637 [kcal/mol]    -356.02135642 [kJ/mol]

  Special recipe for scaled SAPT0 (see Manual):
    Electrostatics sSAPT0        -134.73089780 [mEh]     -84.54491478 [kcal/mol]    -353.73592344 [kJ/mol]
    Exchange sSAPT0                28.13711862 [mEh]      17.65630850 [kcal/mol]      73.87399476 [kJ/mol]
    Induction sSAPT0              -32.01112462 [mEh]     -20.08728396 [kcal/mol]     -84.04519611 [kJ/mol]
    Dispersion sSAPT0              -2.30974866 [mEh]      -1.44938916 [kcal/mol]      -6.06424426 [kJ/mol]
  Total sSAPT0                   -140.91465245 [mEh]     -88.42527941 [kcal/mol]    -369.97136905 [kJ/mol]
  --------------------------------------------------------------------------------------------------------

*** Psi4 exiting successfully. Buy a developer a beer!
