                               Psi4 1.9 release

  ==> Input File <==

--------------------------------------------------------------------------
MEMORY 60 GB

molecule dimer {
1 1
Na     0.000000     0.000000     0.000000
--
0 1
O     -0.016634     2.345683    -0.609321
H      0.441678     2.450256    -1.409300
H      0.733689     2.265644     0.005770
O      0.406428    -1.097493    -2.293116
H      0.899427    -0.937944    -3.106605
H      0.661938    -1.992354    -2.078615
O      2.069479     1.034300     0.451098
H      2.747916     1.000797    -0.192622
H      2.391647     0.698374     1.298185
O     -1.213915     0.523942     1.927405
H     -1.110685     1.402355     2.320522
H     -2.137289     0.311989     1.834560
O      1.342782    -1.704267     1.482592
H      0.507916    -2.003377     1.175612
H      1.850860    -2.539289     1.574754
O     -1.325409    -1.920437     0.348480
H     -1.929786    -1.973954     1.095278
H     -1.800531    -2.290450    -0.440086

units ang
no_reorient
no_com
symmetry c1
}

set {
basis        aug-cc-pVTZ
scf_type     df
}

energy("sapt2+")
--------------------------------------------------------------------------

  //              Dimer HF             //
    Molecular point group: c1
  Charge       = 1
  Multiplicity = 1
  Basis Set: AUG-CC-PVTZ
    Blend: AUG-CC-PVTZ
  Basis Set: (AUG-CC-PVTZ AUX)
    Blend: AUG-CC-PVTZ-JKFIT + DEF2-UNIVERSAL-JKFIT
  @DF-RHF Final Energy:  -618.15555021842522
    Total Energy =                       -618.1555502184252191
 Dipole X            :        -24.6954617           25.2441483            0.5486866
 Dipole Y            :         17.6936898          -19.1885229           -1.4948330
 Dipole Z            :        -23.9010641           23.6868798           -0.2141843
 Magnitude           :                                                    1.6066915
  //            Monomer A HF           //
    Molecular point group: c1
  Multiplicity = 1
  Basis Set: AUG-CC-PVTZ
    Blend: AUG-CC-PVTZ
  Basis Set: (AUG-CC-PVTZ AUX)
    Blend: AUG-CC-PVTZ-JKFIT + DEF2-UNIVERSAL-JKFIT
  @DF-RHF Final Energy:  -161.67609653785112
    Total Energy =                       -161.6760965378511230
  //            Monomer B HF           //
    Molecular point group: c1

    Geometry (in Angstrom), charge = 0, multiplicity = 1:

       Center              X                  Y                   Z               Mass
    ------------   -----------------  -----------------  -----------------  -----------------
      Gh(NA)          0.000000000000     0.000000000000     0.000000000000    22.989769282000
         O           -0.016634000000     2.345683000000    -0.609321000000    15.994914619570
         H            0.441678000000     2.450256000000    -1.409300000000     1.007825032230
         H            0.733689000000     2.265644000000     0.005770000000     1.007825032230
         O            0.406428000000    -1.097493000000    -2.293116000000    15.994914619570
         H            0.899427000000    -0.937944000000    -3.106605000000     1.007825032230
         H            0.661938000000    -1.992354000000    -2.078615000000     1.007825032230
         O            2.069479000000     1.034300000000     0.451098000000    15.994914619570
         H            2.747916000000     1.000797000000    -0.192622000000     1.007825032230
         H            2.391647000000     0.698374000000     1.298185000000     1.007825032230
         O           -1.213915000000     0.523942000000     1.927405000000    15.994914619570
         H           -1.110685000000     1.402355000000     2.320522000000     1.007825032230
         H           -2.137289000000     0.311989000000     1.834560000000     1.007825032230
         O            1.342782000000    -1.704267000000     1.482592000000    15.994914619570
         H            0.507916000000    -2.003377000000     1.175612000000     1.007825032230
         H            1.850860000000    -2.539289000000     1.574754000000     1.007825032230
         O           -1.325409000000    -1.920437000000     0.348480000000    15.994914619570
         H           -1.929786000000    -1.973954000000     1.095278000000     1.007825032230
         H           -1.800531000000    -2.290450000000    -0.440086000000     1.007825032230

  Charge       = 0
  Multiplicity = 1
  Basis Set: AUG-CC-PVTZ
    Blend: AUG-CC-PVTZ
  Basis Set: (AUG-CC-PVTZ AUX)
    Blend: AUG-CC-PVTZ-JKFIT + DEF2-UNIVERSAL-JKFIT

    Orbital Energies [Eh]
    ---------------------

    Doubly Occupied:

       1A    -20.566482     2A    -20.553185     3A    -20.541884
       4A    -20.533028     5A    -20.527636     6A    -20.499340
       7A     -1.342698     8A     -1.338459     9A     -1.337050
      10A     -1.317061    11A     -1.314671    12A     -1.296472
      13A     -0.715266    14A     -0.714076    15A     -0.696542
      16A     -0.693535    17A     -0.678684    18A     -0.659007
      19A     -0.578033    20A     -0.571811    21A     -0.570863
      22A     -0.553177    23A     -0.538268    24A     -0.520021
      25A     -0.505222    26A     -0.496272    27A     -0.488800
      28A     -0.475545    29A     -0.469596    30A     -0.445486

  @DF-RHF Final Energy:  -456.34629561171118

   => Energetics <=

    Nuclear Repulsion Energy =            271.3635778736059478
    One-Electron Energy =               -1172.3433938861671777
    Two-Electron Energy =                 444.6335204008501023
    Total Energy =                       -456.3462956117111844
 Dipole X            :        -24.8220677           25.2441483            0.4220807
 Dipole Y            :         17.7742765          -19.1885229           -1.4142464
 Dipole Z            :        -24.0261374           23.6868798           -0.3392575
 Magnitude           :                                                    1.5143780

    SAPT Results
  --------------------------------------------------------------------------------------------------------
    Electrostatics               -121.30490799 [mEh]     -76.11997898 [kcal/mol]    -318.48599205 [kJ/mol]
      Elst10,r                   -128.12940876 [mEh]     -80.40241787 [kcal/mol]    -336.40371636 [kJ/mol]
      Elst12,r                      6.82450077 [mEh]       4.28243889 [kcal/mol]      17.91772431 [kJ/mol]

    Exchange                       35.11079688 [mEh]      22.03235767 [kcal/mol]      92.18338451 [kJ/mol]
      Exch10                       30.95320906 [mEh]      19.42343193 [kcal/mol]      81.26763919 [kJ/mol]
      Exch10(S^2)                  30.91929446 [mEh]      19.40215020 [kcal/mol]      81.17859642 [kJ/mol]
      Exch11(S^2)                  -0.74383535 [mEh]      -0.46676373 [kcal/mol]      -1.95293945 [kJ/mol]
      Exch12(S^2)                   4.90142317 [mEh]       3.07568948 [kcal/mol]      12.86868477 [kJ/mol]

    Induction                     -42.01124418 [mEh]     -26.36245373 [kcal/mol]    -110.30050641 [kJ/mol]
      Ind20,r                     -65.34436266 [mEh]     -41.00420663 [kcal/mol]    -171.56160052 [kJ/mol]
      Ind22                       -10.42548700 [mEh]      -6.54209186 [kcal/mol]     -27.37211234 [kJ/mol]
      Exch-Ind20,r                 27.55373777 [mEh]      17.29023149 [kcal/mol]      72.34232856 [kJ/mol]
      Exch-Ind22                    4.39611197 [mEh]       2.75860191 [kcal/mol]      11.54199039 [kJ/mol]
      delta HF,r (2)                1.80875572 [mEh]       1.13501135 [kcal/mol]       4.74888750 [kJ/mol]

    Dispersion                     -3.52275706 [mEh]      -2.21056343 [kcal/mol]      -9.24899739 [kJ/mol]
      Disp20                       -3.43861690 [mEh]      -2.15776468 [kcal/mol]      -9.02808743 [kJ/mol]
      Disp21                       -0.08208722 [mEh]      -0.05151051 [kcal/mol]      -0.21551996 [kJ/mol]
      Disp22 (SDQ)                 -0.22814982 [mEh]      -0.14316617 [kcal/mol]      -0.59900727 [kJ/mol]
      Disp22 (T)                   -0.30701396 [mEh]      -0.19265417 [kcal/mol]      -0.80606503 [kJ/mol]
      Est. Disp22 (T)              -0.34567942 [mEh]      -0.21691711 [kcal/mol]      -0.90758118 [kJ/mol]
      Exch-Disp20                   0.57177629 [mEh]       0.35879504 [kcal/mol]       1.50119844 [kJ/mol]

  Total HF                       -133.15806886 [mEh]     -83.55794972 [kcal/mol]    -349.60646163 [kJ/mol]
  Total SAPT0                    -136.02490947 [mEh]     -85.35691936 [kcal/mol]    -357.13335062 [kJ/mol]
  Total SAPT2                    -131.07219590 [mEh]     -82.24904468 [kcal/mol]    -344.13000293 [kJ/mol]
  Total SAPT2+                   -131.72811236 [mEh]     -82.66063847 [kcal/mol]    -345.85211134 [kJ/mol]

  Special recipe for scaled SAPT0 (see Manual):
    Electrostatics sSAPT0        -128.12940876 [mEh]     -80.40241787 [kcal/mol]    -336.40371636 [kJ/mol]
    Exchange sSAPT0                30.95320906 [mEh]      19.42343193 [kcal/mol]      81.26763919 [kJ/mol]
    Induction sSAPT0              -35.89110065 [mEh]     -22.52200568 [kcal/mol]     -94.23207178 [kJ/mol]
    Dispersion sSAPT0              -2.86495704 [mEh]      -1.79778769 [kcal/mol]      -7.52194368 [kJ/mol]
  Total sSAPT0                   -135.93225740 [mEh]     -85.29877931 [kcal/mol]    -356.89009264 [kJ/mol]
  --------------------------------------------------------------------------------------------------------

*** Psi4 exiting successfully. Buy a developer a beer!
