                               Psi4 1.9 release

  ==> Input File <==

--------------------------------------------------------------------------
MEMORY 60 GB

molecule dimer {
1 1
Na     0.000000     0.000000     0.000000
--
0 1
O      1.442910    -1.615519    -0.724539
H      2.256766    -1.142850    -0.890378
H      1.587192    -2.224263     0.048492
O     -0.953321     0.932193    -1.763865
H     -1.633057     1.511012    -1.396330
H     -0.910682     1.229146    -2.659653
O     -0.002406     0.246926     2.384799
H      0.732056    -0.107898     2.849308
H      0.173253     1.192445     2.308746
O      2.128873     1.405530     0.211056
H      2.986769     1.017955     0.261027
H      2.073410     1.856766    -0.680462
O     -2.115569    -0.327278     0.500773
H     -2.586886    -0.082643    -0.302497
H     -2.583910     0.063951     1.259491

units ang
no_reorient
no_com
symmetry c1
}

set {
basis        aug-cc-pVTZ
scf_type     df
}

energy("sapt2+")
--------------------------------------------------------------------------

  //              Dimer HF             //
    Molecular point group: c1
  Charge       = 1
  Multiplicity = 1
  Basis Set: AUG-CC-PVTZ
    Blend: AUG-CC-PVTZ
  Basis Set: (AUG-CC-PVTZ AUX)
    Blend: AUG-CC-PVTZ-JKFIT + DEF2-UNIVERSAL-JKFIT
  @DF-RHF Final Energy:  -542.07970886959879
    Total Energy =                       -542.0797088695987895
 Dipole X            :        -10.7443673           11.5250749            0.7807076
 Dipole Y            :        -14.5668659           15.9652321            1.3983662
 Dipole Z            :        -10.9871366           10.7025319           -0.2846046
 Magnitude           :                                                    1.6266322
  //            Monomer A HF           //
    Molecular point group: c1
  Multiplicity = 1
  Basis Set: AUG-CC-PVTZ
    Blend: AUG-CC-PVTZ
  Basis Set: (AUG-CC-PVTZ AUX)
    Blend: AUG-CC-PVTZ-JKFIT + DEF2-UNIVERSAL-JKFIT
  @DF-RHF Final Energy:  -161.67609400307072
    Total Energy =                       -161.6760940030707161
  //            Monomer B HF           //
    Molecular point group: c1

    Geometry (in Angstrom), charge = 0, multiplicity = 1:

       Center              X                  Y                   Z               Mass
    ------------   -----------------  -----------------  -----------------  -----------------
      Gh(NA)          0.000000000000     0.000000000000     0.000000000000    22.989769282000
         O            1.442910000000    -1.615519000000    -0.724539000000    15.994914619570
         H            2.256766000000    -1.142850000000    -0.890378000000     1.007825032230
         H            1.587192000000    -2.224263000000     0.048492000000     1.007825032230
         O           -0.953321000000     0.932193000000    -1.763865000000    15.994914619570
         H           -1.633057000000     1.511012000000    -1.396330000000     1.007825032230
         H           -0.910682000000     1.229146000000    -2.659653000000     1.007825032230
         O           -0.002406000000     0.246926000000     2.384799000000    15.994914619570
         H            0.732056000000    -0.107898000000     2.849308000000     1.007825032230
         H            0.173253000000     1.192445000000     2.308746000000     1.007825032230
         O            2.128873000000     1.405530000000     0.211056000000    15.994914619570
         H            2.986769000000     1.017955000000     0.261027000000     1.007825032230
         H            2.073410000000     1.856766000000    -0.680462000000     1.007825032230
         O           -2.115569000000    -0.327278000000     0.500773000000    15.994914619570
         H           -2.586886000000    -0.082643000000    -0.302497000000     1.007825032230
         H           -2.583910000000     0.063951000000     1.259491000000     1.007825032230

  Charge       = 0
  Multiplicity = 1
  Basis Set: AUG-CC-PVTZ
    Blend: AUG-CC-PVTZ
  Basis Set: (AUG-CC-PVTZ AUX)
    Blend: AUG-CC-PVTZ-JKFIT + DEF2-UNIVERSAL-JKFIT

    Orbital Energies [Eh]
    ---------------------

    Doubly Occupied:

       1A    -20.560522     2A    -20.554687     3A    -20.536742
       4A    -20.529632     5A    -20.526789     6A     -1.344681
       7A     -1.338736     8A     -1.321173     9A     -1.310774
      10A     -1.305279    11A     -0.706724    12A     -0.705983
      13A     -0.689076    14A     -0.684306    15A     -0.674500
      16A     -0.575152    17A     -0.572242    18A     -0.551475
      19A     -0.541069    20A     -0.529004    21A     -0.504411
      22A     -0.497533    23A     -0.475447    24A     -0.471535
      25A     -0.465047

  @DF-RHF Final Energy:  -380.27612868075011

   => Energetics <=

    Nuclear Repulsion Energy =            190.2799664686624226
    One-Electron Energy =                -905.1671375406436937
    Two-Electron Energy =                 334.6110423912311376
    Total Energy =                       -380.2761286807501051
 Dipole X            :        -10.7683861           11.5250749            0.7566888
 Dipole Y            :        -14.6669574           15.9652321            1.2982747
 Dipole Z            :        -11.0221810           10.7025319           -0.3196491
 Magnitude           :                                                    1.5363172

    SAPT Results
  --------------------------------------------------------------------------------------------------------
    Electrostatics               -130.39313038 [mEh]     -81.82292463 [kcal/mol]    -342.34711664 [kJ/mol]
      Elst10,r                   -136.75922793 [mEh]     -85.81771115 [kcal/mol]    -359.06130346 [kJ/mol]
      Elst12,r                      6.36609755 [mEh]       3.99478653 [kcal/mol]      16.71418682 [kJ/mol]

    Exchange                       49.22641205 [mEh]      30.89003992 [kcal/mol]     129.24392704 [kJ/mol]
      Exch10                       44.23370502 [mEh]      27.75706896 [kcal/mol]     116.13557653 [kJ/mol]
      Exch10(S^2)                  44.16014118 [mEh]      27.71090695 [kcal/mol]     115.94243469 [kJ/mol]
      Exch11(S^2)                  -1.00790261 [mEh]      -0.63246844 [kcal/mol]      -2.64624794 [kJ/mol]
      Exch12(S^2)                   6.00060964 [mEh]       3.76543940 [kcal/mol]      15.75459845 [kJ/mol]

    Induction                     -40.77998551 [mEh]     -25.58982725 [kcal/mol]    -107.06783720 [kJ/mol]
      Ind20,r                     -76.50548859 [mEh]     -48.00791889 [kcal/mol]    -200.86513262 [kJ/mol]
      Ind22                       -11.82240877 [mEh]      -7.41867350 [kcal/mol]     -31.03972994 [kJ/mol]
      Exch-Ind20,r                 38.84733192 [mEh]      24.37706881 [kcal/mol]     101.99365589 [kJ/mol]
      Exch-Ind22                    6.00308613 [mEh]       3.76699342 [kcal/mol]      15.76110046 [kJ/mol]
      delta HF,r (2)                2.69749381 [mEh]       1.69270292 [kcal/mol]       7.08226901 [kJ/mol]

    Dispersion                     -3.65195508 [mEh]      -2.29163641 [kcal/mol]      -9.58820674 [kJ/mol]
      Disp20                       -3.73765609 [mEh]      -2.34541461 [kcal/mol]      -9.81321472 [kJ/mol]
      Disp21                       -0.08672903 [mEh]      -0.05442329 [kcal/mol]      -0.22770704 [kJ/mol]
      Disp22 (SDQ)                 -0.24024562 [mEh]      -0.15075640 [kcal/mol]      -0.63076479 [kJ/mol]
      Disp22 (T)                   -0.31962421 [mEh]      -0.20056722 [kcal/mol]      -0.83917326 [kJ/mol]
      Est. Disp22 (T)              -0.36617007 [mEh]      -0.22977519 [kcal/mol]      -0.96137940 [kJ/mol]
      Exch-Disp20                   0.77884574 [mEh]       0.48873308 [kcal/mol]       2.04485920 [kJ/mol]

  Total HF                       -127.48618578 [mEh]     -79.99878935 [kcal/mol]    -334.71493465 [kJ/mol]
  Total SAPT0                    -130.44499613 [mEh]     -81.85547088 [kcal/mol]    -342.48329017 [kJ/mol]
  Total SAPT2                    -124.90551419 [mEh]     -78.37939348 [kcal/mol]    -327.93938231 [kJ/mol]
  Total SAPT2+                   -125.59865891 [mEh]     -78.81434836 [kcal/mol]    -329.75923354 [kJ/mol]

  Special recipe for scaled SAPT0 (see Manual):
    Electrostatics sSAPT0        -136.75922793 [mEh]     -85.81771115 [kcal/mol]    -359.06130346 [kJ/mol]
    Exchange sSAPT0                44.23370502 [mEh]      27.75706896 [kcal/mol]     116.13557653 [kJ/mol]
    Induction sSAPT0              -34.76619866 [mEh]     -21.81611903 [kcal/mol]     -91.27864201 [kJ/mol]
    Dispersion sSAPT0              -2.95491157 [mEh]      -1.85423500 [kcal/mol]      -7.75811925 [kJ/mol]
  Total sSAPT0                   -130.24663314 [mEh]     -81.73099622 [kcal/mol]    -341.96248819 [kJ/mol]
  --------------------------------------------------------------------------------------------------------

*** Psi4 exiting successfully. Buy a developer a beer!
