                               Psi4 1.9 release

  ==> Input File <==

--------------------------------------------------------------------------
MEMORY 60 GB

molecule dimer {
1 1
Na     0.000000     0.000000     0.000000
--
0 1
O     -0.846206     1.202595     1.854346
H     -1.394373     1.995479     2.024959
H     -0.648149     0.790331     2.691139
O     -1.309742     1.323778    -1.628410
H     -1.163522     2.267977    -1.422263
H     -1.147540     1.263131    -2.577035
O      1.237480    -1.823391     0.446021
H      0.963790    -2.734554     0.597322
H      2.174011    -1.658736     0.605497
O     -1.574568    -1.883367    -0.384367
H     -1.498784    -2.289933    -1.277612
H     -2.507560    -1.716692    -0.387422

units ang
no_reorient
no_com
symmetry c1
}

set {
basis        aug-cc-pVTZ
scf_type     df
}

energy("sapt2+")
--------------------------------------------------------------------------

  //              Dimer HF             //
    Molecular point group: c1
  Charge       = 1
  Multiplicity = 1
  Basis Set: AUG-CC-PVTZ
    Blend: AUG-CC-PVTZ
  Basis Set: (AUG-CC-PVTZ AUX)
    Blend: AUG-CC-PVTZ-JKFIT + DEF2-UNIVERSAL-JKFIT
  @DF-RHF Final Energy:  -466.02288547158446
    Total Energy =                       -466.0228854715844591
 Dipole X            :         47.1693688          -47.5576319           -0.3882631
 Dipole Y            :         21.8470920          -21.7811288            0.0659631
 Dipole Z            :         -4.9541549            4.8288266           -0.1253283
 Magnitude           :                                                    0.4132875
  //            Monomer A HF           //
    Molecular point group: c1
  Multiplicity = 1
  Basis Set: AUG-CC-PVTZ
    Blend: AUG-CC-PVTZ
  Basis Set: (AUG-CC-PVTZ AUX)
    Blend: AUG-CC-PVTZ-JKFIT + DEF2-UNIVERSAL-JKFIT
  @DF-RHF Final Energy:  -161.67608403221959
    Total Energy =                       -161.6760840322196202
  //            Monomer B HF           //
    Molecular point group: c1

    Geometry (in Angstrom), charge = 0, multiplicity = 1:

       Center              X                  Y                   Z               Mass
    ------------   -----------------  -----------------  -----------------  -----------------
      Gh(NA)          0.000000000000     0.000000000000     0.000000000000    22.989769282000
         O           -0.846206000000     1.202595000000     1.854346000000    15.994914619570
         H           -1.394373000000     1.995479000000     2.024959000000     1.007825032230
         H           -0.648149000000     0.790331000000     2.691139000000     1.007825032230
         O           -1.309742000000     1.323778000000    -1.628410000000    15.994914619570
         H           -1.163522000000     2.267977000000    -1.422263000000     1.007825032230
         H           -1.147540000000     1.263131000000    -2.577035000000     1.007825032230
         O            1.237480000000    -1.823391000000     0.446021000000    15.994914619570
         H            0.963790000000    -2.734554000000     0.597322000000     1.007825032230
         H            2.174011000000    -1.658736000000     0.605497000000     1.007825032230
         O           -1.574568000000    -1.883367000000    -0.384367000000    15.994914619570
         H           -1.498784000000    -2.289933000000    -1.277612000000     1.007825032230
         H           -2.507560000000    -1.716692000000    -0.387422000000     1.007825032230

  Charge       = 0
  Multiplicity = 1
  Basis Set: AUG-CC-PVTZ
    Blend: AUG-CC-PVTZ
  Basis Set: (AUG-CC-PVTZ AUX)
    Blend: AUG-CC-PVTZ-JKFIT + DEF2-UNIVERSAL-JKFIT

    Orbital Energies [Eh]
    ---------------------

    Doubly Occupied:

       1A    -20.547471     2A    -20.543087     3A    -20.538296
       4A    -20.533759     5A     -1.324759     6A     -1.322287
       7A     -1.321522     8A     -1.313282     9A     -0.702252
      10A     -0.696125    11A     -0.687207    12A     -0.668194
      13A     -0.564140    14A     -0.559858    15A     -0.548535
      16A     -0.529396    17A     -0.486507    18A     -0.483877
      19A     -0.477644    20A     -0.476077

  @DF-RHF Final Energy:  -304.22347446076884

   => Energetics <=

    Nuclear Repulsion Energy =            119.7722177685028697
    One-Electron Energy =                -659.3428209964246207
    Two-Electron Energy =                 235.3471287671528955
    Total Energy =                       -304.2234744607688981
 Dipole X            :         47.4234760          -47.5576319           -0.1341559
 Dipole Y            :         21.9778434          -21.7811288            0.1967145
 Dipole Z            :         -4.9972998            4.8288266           -0.1684732
 Magnitude           :                                                    0.2916807

    SAPT Results
  --------------------------------------------------------------------------------------------------------
    Electrostatics               -114.33296228 [mEh]     -71.74501699 [kcal/mol]    -300.18115110 [kJ/mol]
      Elst10,r                   -121.28573934 [mEh]     -76.10795047 [kcal/mol]    -318.43566476 [kJ/mol]
      Elst12,r                      6.95277706 [mEh]       4.36293348 [kcal/mol]      18.25451366 [kJ/mol]

    Exchange                       28.46281428 [mEh]      17.86068561 [kcal/mol]      74.72910859 [kJ/mol]
      Exch10                       25.57030101 [mEh]      16.04560613 [kcal/mol]      67.13481605 [kJ/mol]
      Exch10(S^2)                  25.53709273 [mEh]      16.02476762 [kcal/mol]      67.04762773 [kJ/mol]
      Exch11(S^2)                  -0.43712964 [mEh]      -0.27430299 [kcal/mol]      -1.14768372 [kJ/mol]
      Exch12(S^2)                   3.32964291 [mEh]       2.08938247 [kcal/mol]       8.74197626 [kJ/mol]

    Induction                     -31.70320826 [mEh]     -19.89406353 [kcal/mol]     -83.23676183 [kJ/mol]
      Ind20,r                     -52.87732725 [mEh]     -33.18102380 [kcal/mol]    -138.82940358 [kJ/mol]
      Ind22                        -7.31250293 [mEh]      -4.58866486 [kcal/mol]     -19.19897379 [kJ/mol]
      Exch-Ind20,r                 23.29012985 [mEh]      14.61477713 [kcal/mol]      61.14822751 [kJ/mol]
      Exch-Ind22                    3.22083493 [mEh]       2.02110443 [kcal/mol]       8.45630095 [kJ/mol]
      delta HF,r (2)                1.97565713 [mEh]       1.23974357 [kcal/mol]       5.18708708 [kJ/mol]

    Dispersion                     -2.27606005 [mEh]      -1.42824924 [kcal/mol]      -5.97579484 [kJ/mol]
      Disp20                       -2.23913543 [mEh]      -1.40507870 [kcal/mol]      -5.87884927 [kJ/mol]
      Disp21                       -0.07629234 [mEh]      -0.04787417 [kcal/mol]      -0.20030551 [kJ/mol]
      Disp22 (SDQ)                 -0.13722204 [mEh]      -0.08610813 [kcal/mol]      -0.36027642 [kJ/mol]
      Disp22 (T)                   -0.18297744 [mEh]      -0.11482008 [kcal/mol]      -0.48040721 [kJ/mol]
      Est. Disp22 (T)              -0.21488266 [mEh]      -0.13484091 [kcal/mol]      -0.56417435 [kJ/mol]
      Exch-Disp20                   0.39147243 [mEh]       0.24565266 [kcal/mol]       1.02781071 [kJ/mol]

  Total HF                       -123.32697860 [mEh]     -77.38884744 [kcal/mol]    -323.79493769 [kJ/mol]
  Total SAPT0                    -125.17464160 [mEh]     -78.54827348 [kcal/mol]    -328.64597625 [kJ/mol]
  Total SAPT2                    -119.42101927 [mEh]     -74.93782096 [kcal/mol]    -313.53984289 [kJ/mol]
  Total SAPT2+                   -119.84941631 [mEh]     -75.20664416 [kcal/mol]    -314.66459917 [kJ/mol]

  Special recipe for scaled SAPT0 (see Manual):
    Electrostatics sSAPT0        -121.28573934 [mEh]     -76.10795047 [kcal/mol]    -318.43566476 [kJ/mol]
    Exchange sSAPT0                25.57030101 [mEh]      16.04560613 [kcal/mol]      67.13481605 [kJ/mol]
    Induction sSAPT0              -27.52056304 [mEh]     -17.26941403 [kcal/mol]     -72.25522831 [kJ/mol]
    Dispersion sSAPT0              -1.84613382 [mEh]      -1.15846646 [kcal/mol]      -4.84702367 [kJ/mol]
  Total sSAPT0                   -125.08213519 [mEh]     -78.49022483 [kcal/mol]    -328.40310069 [kJ/mol]
  --------------------------------------------------------------------------------------------------------

*** Psi4 exiting successfully. Buy a developer a beer!
