                               Psi4 1.9 release

  ==> Input File <==

--------------------------------------------------------------------------
MEMORY 60 GB

molecule dimer {
1 1
Na     0.000000     0.000000     0.000000
--
0 1
O      2.161813     1.206626    -0.266700
H      2.702963     0.459594    -0.645875
H      2.788583     1.720992     0.282642
O     -0.556590    -0.575984    -2.179488
H     -1.017472     0.122616    -2.697717
H      0.357469    -0.689631    -2.443771
O      0.229150     0.481834     2.206901
H     -0.313539     1.262282     2.430655
H      0.022652    -0.088819     2.940612
O     -0.111430    -2.057137     0.450586
H     -0.126469    -2.559975    -0.403823
H     -0.555096    -2.521016     1.178518
O     -1.173824     1.990268    -0.285624
H     -1.323983     2.704336    -0.895645
H     -1.221891     2.483177     0.551307

units ang
no_reorient
no_com
symmetry c1
}

set {
basis        aug-cc-pVTZ
scf_type     df
}

energy("sapt2+")
--------------------------------------------------------------------------

  //              Dimer HF             //
    Molecular point group: c1
  Charge       = 1
  Multiplicity = 1
  Basis Set: AUG-CC-PVTZ
    Blend: AUG-CC-PVTZ
  Basis Set: (AUG-CC-PVTZ AUX)
    Blend: AUG-CC-PVTZ-JKFIT + DEF2-UNIVERSAL-JKFIT
  @DF-RHF Final Energy:  -542.07822473076635
    Total Energy =                       -542.0782247307663511
 Dipole X            :        -10.6329185           10.7830966            0.1501782
 Dipole Y            :        -20.6597489           21.2753153            0.6155664
 Dipole Z            :          0.8441744           -0.5625658            0.2816086
 Magnitude           :                                                    0.6933822
  //            Monomer A HF           //
    Molecular point group: c1
  Multiplicity = 1
  Basis Set: AUG-CC-PVTZ
    Blend: AUG-CC-PVTZ
  Basis Set: (AUG-CC-PVTZ AUX)
    Blend: AUG-CC-PVTZ-JKFIT + DEF2-UNIVERSAL-JKFIT
  @DF-RHF Final Energy:  -161.67609361226863
    Total Energy =                       -161.6760936122686303
  //            Monomer B HF           //
    Molecular point group: c1

    Geometry (in Angstrom), charge = 0, multiplicity = 1:

       Center              X                  Y                   Z               Mass
    ------------   -----------------  -----------------  -----------------  -----------------
      Gh(NA)          0.000000000000     0.000000000000     0.000000000000    22.989769282000
         O            2.161813000000     1.206626000000    -0.266700000000    15.994914619570
         H            2.702963000000     0.459594000000    -0.645875000000     1.007825032230
         H            2.788583000000     1.720992000000     0.282642000000     1.007825032230
         O           -0.556590000000    -0.575984000000    -2.179488000000    15.994914619570
         H           -1.017472000000     0.122616000000    -2.697717000000     1.007825032230
         H            0.357469000000    -0.689631000000    -2.443771000000     1.007825032230
         O            0.229150000000     0.481834000000     2.206901000000    15.994914619570
         H           -0.313539000000     1.262282000000     2.430655000000     1.007825032230
         H            0.022652000000    -0.088819000000     2.940612000000     1.007825032230
         O           -0.111430000000    -2.057137000000     0.450586000000    15.994914619570
         H           -0.126469000000    -2.559975000000    -0.403823000000     1.007825032230
         H           -0.555096000000    -2.521016000000     1.178518000000     1.007825032230
         O           -1.173824000000     1.990268000000    -0.285624000000    15.994914619570
         H           -1.323983000000     2.704336000000    -0.895645000000     1.007825032230
         H           -1.221891000000     2.483177000000     0.551307000000     1.007825032230

  Charge       = 0
  Multiplicity = 1
  Basis Set: AUG-CC-PVTZ
    Blend: AUG-CC-PVTZ
  Basis Set: (AUG-CC-PVTZ AUX)
    Blend: AUG-CC-PVTZ-JKFIT + DEF2-UNIVERSAL-JKFIT

    Orbital Energies [Eh]
    ---------------------

    Doubly Occupied:

       1A    -20.544016     2A    -20.540371     3A    -20.539798
       4A    -20.534619     5A    -20.528722     6A     -1.329465
       7A     -1.322649     8A     -1.310899     9A     -1.305954
      10A     -1.297855    11A     -0.696848    12A     -0.685559
      13A     -0.682369    14A     -0.671246    15A     -0.670412
      16A     -0.566952    17A     -0.558877    18A     -0.543417
      19A     -0.536495    20A     -0.522921    21A     -0.483734
      22A     -0.479399    23A     -0.474645    24A     -0.473537
      25A     -0.465008

  @DF-RHF Final Energy:  -380.26472941547576

   => Energetics <=

    Nuclear Repulsion Energy =            189.5453727317977553
    One-Electron Energy =                -904.0886593317692359
    Two-Electron Energy =                 334.2785571844956962
    Total Energy =                       -380.2647294154757560
 Dipole X            :        -10.6570531           10.7830966            0.1260435
 Dipole Y            :        -20.7553383           21.2753153            0.5199770
 Dipole Z            :          0.8128313           -0.5625658            0.2502655
 Magnitude           :                                                    0.5906741

    SAPT Results
  --------------------------------------------------------------------------------------------------------
    Electrostatics               -140.18432829 [mEh]     -87.96699408 [kcal/mol]    -368.05390322 [kJ/mol]
      Elst10,r                   -148.50182856 [mEh]     -93.18630429 [kcal/mol]    -389.89149716 [kJ/mol]
      Elst12,r                      8.31750026 [mEh]       5.21931021 [kcal/mol]      21.83759394 [kJ/mol]

    Exchange                       52.07228425 [mEh]      32.67585169 [kcal/mol]     136.71576345 [kJ/mol]
      Exch10                       47.30177541 [mEh]      29.68231220 [kcal/mol]     124.19079422 [kJ/mol]
      Exch10(S^2)                  47.19354589 [mEh]      29.61439715 [kcal/mol]     123.90663766 [kJ/mol]
      Exch11(S^2)                  -1.07804591 [mEh]      -0.67648402 [kcal/mol]      -2.83040916 [kJ/mol]
      Exch12(S^2)                   5.84855475 [mEh]       3.67002351 [kcal/mol]      15.35537838 [kJ/mol]

    Induction                     -41.92413540 [mEh]     -26.30779214 [kcal/mol]    -110.07180232 [kJ/mol]
      Ind20,r                     -79.37019762 [mEh]     -49.80555094 [kcal/mol]    -208.38642514 [kJ/mol]
      Ind22                       -11.65090511 [mEh]      -7.31105333 [kcal/mol]     -30.58944715 [kJ/mol]
      Exch-Ind20,r                 40.38654765 [mEh]      25.34294126 [kcal/mol]     106.03486623 [kJ/mol]
      Exch-Ind22                    5.92841959 [mEh]       3.72013946 [kcal/mol]      15.56506349 [kJ/mol]
      delta HF,r (2)                2.78200010 [mEh]       1.74573142 [kcal/mol]       7.30414026 [kJ/mol]

    Dispersion                     -3.81356428 [mEh]      -2.39304772 [kcal/mol]     -10.01251165 [kJ/mol]
      Disp20                       -3.95010506 [mEh]      -2.47872835 [kcal/mol]     -10.37099942 [kJ/mol]
      Disp21                       -0.07126099 [mEh]      -0.04471695 [kcal/mol]      -0.18709571 [kJ/mol]
      Disp22 (SDQ)                 -0.24767016 [mEh]      -0.15541537 [kcal/mol]      -0.65025792 [kJ/mol]
      Disp22 (T)                   -0.33484886 [mEh]      -0.21012083 [kcal/mol]      -0.87914556 [kJ/mol]
      Est. Disp22 (T)              -0.38381225 [mEh]      -0.24084583 [kcal/mol]      -1.00769894 [kJ/mol]
      Exch-Disp20                   0.83928419 [mEh]       0.52665878 [kcal/mol]       2.20354033 [kJ/mol]

  Total HF                       -137.40170302 [mEh]     -86.22087036 [kcal/mol]    -360.74812158 [kJ/mol]
  Total SAPT0                    -140.51252390 [mEh]     -88.17293993 [kcal/mol]    -368.91558067 [kJ/mol]
  Total SAPT2                    -133.14700032 [mEh]     -83.55100410 [kcal/mol]    -349.57740117 [kJ/mol]
  Total SAPT2+                   -133.84974373 [mEh]     -83.99198225 [kcal/mol]    -351.42245374 [kJ/mol]

  Special recipe for scaled SAPT0 (see Manual):
    Electrostatics sSAPT0        -148.50182856 [mEh]     -93.18630429 [kcal/mol]    -389.89149716 [kJ/mol]
    Exchange sSAPT0                47.30177541 [mEh]      29.68231220 [kcal/mol]     124.19079422 [kJ/mol]
    Induction sSAPT0              -35.92315533 [mEh]     -22.54212029 [kcal/mol]     -94.31623131 [kJ/mol]
    Dispersion sSAPT0              -3.10503340 [mEh]      -1.94843788 [kcal/mol]      -8.15226407 [kJ/mol]
  Total sSAPT0                   -140.22824188 [mEh]     -87.99455027 [kcal/mol]    -368.16919832 [kJ/mol]
  --------------------------------------------------------------------------------------------------------

*** Psi4 exiting successfully. Buy a developer a beer!
