                               Psi4 1.9 release

  ==> Input File <==

--------------------------------------------------------------------------
MEMORY 60 GB

molecule dimer {
1 1
Na     0.000000     0.000000     0.000000
--
0 1
O     -2.267046    -0.058444    -0.576173
H     -2.957507     0.583536    -0.703646
H     -2.245748    -0.641405    -1.346391
O      2.020528    -0.856869     0.738830
H      2.866660    -0.369129     0.689068
H      2.097887    -1.320091     1.596498
O      0.786320    -0.955734    -2.146642
H      0.999726    -1.902132    -2.090619
H      0.456867    -0.843797    -3.039678
O     -0.382137    -2.373173     0.216705
H      0.026752    -3.262338     0.298848
H     -1.300501    -2.497887     0.385697
O     -0.519840     0.317423     2.277683
H      0.259638     0.493602     2.844944
H     -0.969288    -0.486423     2.544550

units ang
no_reorient
no_com
symmetry c1
}

set {
basis        aug-cc-pVTZ
scf_type     df
}

energy("sapt2+")
--------------------------------------------------------------------------

  //              Dimer HF             //
    Molecular point group: c1
  Charge       = 1
  Multiplicity = 1
  Basis Set: AUG-CC-PVTZ
    Blend: AUG-CC-PVTZ
  Basis Set: (AUG-CC-PVTZ AUX)
    Blend: AUG-CC-PVTZ-JKFIT + DEF2-UNIVERSAL-JKFIT
  @DF-RHF Final Energy:  -542.09221094984400
    Total Energy =                       -542.0922109498440022
 Dipole X            :          6.8512100           -6.9219043           -0.0706943
 Dipole Y            :         76.8159226          -78.7268219           -1.9108993
 Dipole Z            :         -9.8047293            9.9446743            0.1399450
 Magnitude           :                                                    1.9173207
  //            Monomer A HF           //
    Molecular point group: c1
  Multiplicity = 1
  Basis Set: AUG-CC-PVTZ
    Blend: AUG-CC-PVTZ
  Basis Set: (AUG-CC-PVTZ AUX)
    Blend: AUG-CC-PVTZ-JKFIT + DEF2-UNIVERSAL-JKFIT
  @DF-RHF Final Energy:  -161.67609046287166
    Total Energy =                       -161.6760904628716560
  //            Monomer B HF           //
    Molecular point group: c1

    Geometry (in Angstrom), charge = 0, multiplicity = 1:

       Center              X                  Y                   Z               Mass
    ------------   -----------------  -----------------  -----------------  -----------------
      Gh(NA)          0.000000000000     0.000000000000     0.000000000000    22.989769282000
         O           -2.267046000000    -0.058444000000    -0.576173000000    15.994914619570
         H           -2.957507000000     0.583536000000    -0.703646000000     1.007825032230
         H           -2.245748000000    -0.641405000000    -1.346391000000     1.007825032230
         O            2.020528000000    -0.856869000000     0.738830000000    15.994914619570
         H            2.866660000000    -0.369129000000     0.689068000000     1.007825032230
         H            2.097887000000    -1.320091000000     1.596498000000     1.007825032230
         O            0.786320000000    -0.955734000000    -2.146642000000    15.994914619570
         H            0.999726000000    -1.902132000000    -2.090619000000     1.007825032230
         H            0.456867000000    -0.843797000000    -3.039678000000     1.007825032230
         O           -0.382137000000    -2.373173000000     0.216705000000    15.994914619570
         H            0.026752000000    -3.262338000000     0.298848000000     1.007825032230
         H           -1.300501000000    -2.497887000000     0.385697000000     1.007825032230
         O           -0.519840000000     0.317423000000     2.277683000000    15.994914619570
         H            0.259638000000     0.493602000000     2.844944000000     1.007825032230
         H           -0.969288000000    -0.486423000000     2.544550000000     1.007825032230

  Charge       = 0
  Multiplicity = 1
  Basis Set: AUG-CC-PVTZ
    Blend: AUG-CC-PVTZ
  Basis Set: (AUG-CC-PVTZ AUX)
    Blend: AUG-CC-PVTZ-JKFIT + DEF2-UNIVERSAL-JKFIT

    Orbital Energies [Eh]
    ---------------------

    Doubly Occupied:

       1A    -20.543729     2A    -20.539308     3A    -20.537695
       4A    -20.532973     5A    -20.527821     6A     -1.328864
       7A     -1.321807     8A     -1.314380     9A     -1.312301
      10A     -1.304691    11A     -0.701378    12A     -0.691350
      13A     -0.685503    14A     -0.677055    15A     -0.669758
      16A     -0.566257    17A     -0.548353    18A     -0.544805
      19A     -0.538630    20A     -0.528578    21A     -0.490901
      22A     -0.482855    23A     -0.480656    24A     -0.468324
      25A     -0.461421

  @DF-RHF Final Energy:  -380.27375502485631

   => Energetics <=

    Nuclear Repulsion Energy =            195.0672900018823839
    One-Electron Energy =                -915.0832968922577493
    Two-Electron Energy =                 339.7422518655190515
    Total Energy =                       -380.2737550248563139
 Dipole X            :          6.8794026           -6.9219043           -0.0425017
 Dipole Y            :         77.2895692          -78.7268219           -1.4372527
 Dipole Z            :         -9.8977596            9.9446743            0.0469147
 Magnitude           :                                                    1.4386462

    SAPT Results
  --------------------------------------------------------------------------------------------------------
    Electrostatics               -130.29658114 [mEh]     -81.76233906 [kcal/mol]    -342.09362664 [kJ/mol]
      Elst10,r                   -138.98379031 [mEh]     -87.21364512 [kcal/mol]    -364.90189119 [kJ/mol]
      Elst12,r                      8.68720918 [mEh]       5.45130606 [kcal/mol]      22.80826455 [kJ/mol]

    Exchange                       33.06818912 [mEh]      20.75060195 [kcal/mol]      86.82051857 [kJ/mol]
      Exch10                       29.56232027 [mEh]      18.55063604 [kcal/mol]      77.61586119 [kJ/mol]
      Exch10(S^2)                  29.52420438 [mEh]      18.52671796 [kcal/mol]      77.51578793 [kJ/mol]
      Exch11(S^2)                  -0.62546773 [mEh]      -0.39248692 [kcal/mol]      -1.64216529 [kJ/mol]
      Exch12(S^2)                   4.13133657 [mEh]       2.59245284 [kcal/mol]      10.84682268 [kJ/mol]

    Induction                     -38.09241411 [mEh]     -23.90335073 [kcal/mol]    -100.01161946 [kJ/mol]
      Ind20,r                     -60.50033193 [mEh]     -37.96453145 [kcal/mol]    -158.84359960 [kJ/mol]
      Ind22                        -8.93756155 [mEh]      -5.60840455 [kcal/mol]     -23.46556462 [kJ/mol]
      Exch-Ind20,r                 25.64952394 [mEh]      16.09531927 [kcal/mol]      67.34281582 [kJ/mol]
      Exch-Ind22                    3.78913952 [mEh]       2.37772095 [kcal/mol]       9.94838445 [kJ/mol]
      delta HF,r (2)                1.90681592 [mEh]       1.19654505 [kcal/mol]       5.00634450 [kJ/mol]

    Dispersion                     -3.11379866 [mEh]      -1.95393816 [kcal/mol]      -8.17527727 [kJ/mol]
      Disp20                       -3.06687540 [mEh]      -1.92449337 [kcal/mol]      -8.05208026 [kJ/mol]
      Disp21                       -0.05996053 [mEh]      -0.03762580 [kcal/mol]      -0.15742634 [kJ/mol]
      Disp22 (SDQ)                 -0.19645874 [mEh]      -0.12327972 [kcal/mol]      -0.51580235 [kJ/mol]
      Disp22 (T)                   -0.26482220 [mEh]      -0.16617844 [kcal/mol]      -0.69529058 [kJ/mol]
      Est. Disp22 (T)              -0.30018501 [mEh]      -0.18836894 [kcal/mol]      -0.78813564 [kJ/mol]
      Exch-Disp20                   0.50968102 [mEh]       0.31982967 [kcal/mol]       1.33816732 [kJ/mol]

  Total HF                       -142.36546212 [mEh]     -89.33567622 [kcal/mol]    -373.78046929 [kJ/mol]
  Total SAPT0                    -144.92265650 [mEh]     -90.94033992 [kcal/mol]    -380.49438223 [kJ/mol]
  Total SAPT2                    -137.87800051 [mEh]     -86.51975155 [kcal/mol]    -361.99864046 [kJ/mol]
  Total SAPT2+                   -138.43460479 [mEh]     -86.86902600 [kcal/mol]    -363.46000479 [kJ/mol]

  Special recipe for scaled SAPT0 (see Manual):
    Electrostatics sSAPT0        -138.98379031 [mEh]     -87.21364512 [kcal/mol]    -364.90189119 [kJ/mol]
    Exchange sSAPT0                29.56232027 [mEh]      18.55063604 [kcal/mol]      77.61586119 [kJ/mol]
    Induction sSAPT0              -32.84452280 [mEh]     -20.61024922 [kcal/mol]     -86.23328273 [kJ/mol]
    Dispersion sSAPT0              -2.55521783 [mEh]      -1.60342340 [kcal/mol]      -6.70872350 [kJ/mol]
  Total sSAPT0                   -144.82121067 [mEh]     -90.87668170 [kcal/mol]    -380.22803623 [kJ/mol]
  --------------------------------------------------------------------------------------------------------

*** Psi4 exiting successfully. Buy a developer a beer!
