                               Psi4 1.9 release

  ==> Input File <==

--------------------------------------------------------------------------
MEMORY 60 GB

molecule dimer {
1 1
Na     0.000000     0.000000     0.000000
--
0 1
O     -0.957217     2.122090    -0.761212
H     -1.756905     1.952064    -0.198211
H     -0.493506     2.945806    -0.576286
O      0.133480    -1.128660     2.008379
H      0.952107    -0.954206     2.471368
H      0.032812    -2.050612     2.218947
O      0.989929    -0.442935    -1.982346
H      1.363465    -1.289649    -2.267338
H      1.775598     0.121932    -1.899567
O     -2.129823    -0.676424    -0.211748
H     -2.343077    -0.516159    -1.166244
H     -2.379667    -1.590251     0.046925
O      2.120634     0.776730     0.226244
H      2.587905    -0.008159     0.581668
H      2.704948     1.475568     0.516434

units ang
no_reorient
no_com
symmetry c1
}

set {
basis        aug-cc-pVTZ
scf_type     df
}

energy("sapt2+")
--------------------------------------------------------------------------

  //              Dimer HF             //
    Molecular point group: c1
  Charge       = 1
  Multiplicity = 1
  Basis Set: AUG-CC-PVTZ
    Blend: AUG-CC-PVTZ
  Basis Set: (AUG-CC-PVTZ AUX)
    Blend: AUG-CC-PVTZ-JKFIT + DEF2-UNIVERSAL-JKFIT
  @DF-RHF Final Energy:  -542.08338468105330
    Total Energy =                       -542.0833846810533032
 Dipole X            :         -5.5477107            6.9914273            1.4437166
 Dipole Y            :        -10.7341949           10.0018328           -0.7323620
 Dipole Z            :         12.1932895          -11.4097279            0.7835616
 Magnitude           :                                                    1.7985106
  //            Monomer A HF           //
    Molecular point group: c1
  Multiplicity = 1
  Basis Set: AUG-CC-PVTZ
    Blend: AUG-CC-PVTZ
  Basis Set: (AUG-CC-PVTZ AUX)
    Blend: AUG-CC-PVTZ-JKFIT + DEF2-UNIVERSAL-JKFIT
  @DF-RHF Final Energy:  -161.67609480872014
    Total Energy =                       -161.6760948087201371
  //            Monomer B HF           //
    Molecular point group: c1

    Geometry (in Angstrom), charge = 0, multiplicity = 1:

       Center              X                  Y                   Z               Mass
    ------------   -----------------  -----------------  -----------------  -----------------
      Gh(NA)          0.000000000000     0.000000000000     0.000000000000    22.989769282000
         O           -0.957217000000     2.122090000000    -0.761212000000    15.994914619570
         H           -1.756905000000     1.952064000000    -0.198211000000     1.007825032230
         H           -0.493506000000     2.945806000000    -0.576286000000     1.007825032230
         O            0.133480000000    -1.128660000000     2.008379000000    15.994914619570
         H            0.952107000000    -0.954206000000     2.471368000000     1.007825032230
         H            0.032812000000    -2.050612000000     2.218947000000     1.007825032230
         O            0.989929000000    -0.442935000000    -1.982346000000    15.994914619570
         H            1.363465000000    -1.289649000000    -2.267338000000     1.007825032230
         H            1.775598000000     0.121932000000    -1.899567000000     1.007825032230
         O           -2.129823000000    -0.676424000000    -0.211748000000    15.994914619570
         H           -2.343077000000    -0.516159000000    -1.166244000000     1.007825032230
         H           -2.379667000000    -1.590251000000     0.046925000000     1.007825032230
         O            2.120634000000     0.776730000000     0.226244000000    15.994914619570
         H            2.587905000000    -0.008159000000     0.581668000000     1.007825032230
         H            2.704948000000     1.475568000000     0.516434000000     1.007825032230

  Charge       = 0
  Multiplicity = 1
  Basis Set: AUG-CC-PVTZ
    Blend: AUG-CC-PVTZ
  Basis Set: (AUG-CC-PVTZ AUX)
    Blend: AUG-CC-PVTZ-JKFIT + DEF2-UNIVERSAL-JKFIT

    Orbital Energies [Eh]
    ---------------------

    Doubly Occupied:

       1A    -20.560942     2A    -20.550451     3A    -20.534242
       4A    -20.524459     5A    -20.522943     6A     -1.343537
       7A     -1.340768     8A     -1.303998     9A     -1.300691
      10A     -1.293838    11A     -0.697757    12A     -0.689735
      13A     -0.687014    14A     -0.673854    15A     -0.666169
      16A     -0.579220    17A     -0.573997    18A     -0.542639
      19A     -0.531868    20A     -0.516952    21A     -0.502750
      22A     -0.492147    23A     -0.470628    24A     -0.462137
      25A     -0.461381

  @DF-RHF Final Energy:  -380.27235282030290

   => Energetics <=

    Nuclear Repulsion Energy =            190.6451826230387212
    One-Electron Energy =                -906.1868267048838561
    Two-Electron Energy =                 335.2692912615422074
    Total Energy =                       -380.2723528203028991
 Dipole X            :         -5.6402205            6.9914273            1.3512068
 Dipole Y            :        -10.7370419           10.0018328           -0.7352091
 Dipole Z            :         12.2480037          -11.4097279            0.8382758
 Magnitude           :                                                    1.7518558

    SAPT Results
  --------------------------------------------------------------------------------------------------------
    Electrostatics               -135.01579438 [mEh]     -84.72369009 [kcal/mol]    -354.48391932 [kJ/mol]
      Elst10,r                   -142.40462566 [mEh]     -89.36025171 [kcal/mol]    -373.88329315 [kJ/mol]
      Elst12,r                      7.38883127 [mEh]       4.63656162 [kcal/mol]      19.39937384 [kJ/mol]

    Exchange                       48.12482835 [mEh]      30.19878572 [kcal/mol]     126.35171944 [kJ/mol]
      Exch10                       43.29404217 [mEh]      27.16742162 [kcal/mol]     113.66849205 [kJ/mol]
      Exch10(S^2)                  43.23441152 [mEh]      27.13000282 [kcal/mol]     113.51193182 [kJ/mol]
      Exch11(S^2)                  -0.99722730 [mEh]      -0.62576958 [kcal/mol]      -2.61821992 [kJ/mol]
      Exch12(S^2)                   5.82801349 [mEh]       3.65713368 [kcal/mol]      15.30144731 [kJ/mol]

    Induction                     -41.69975160 [mEh]     -26.16698918 [kcal/mol]    -109.48268274 [kJ/mol]
      Ind20,r                     -75.97669920 [mEh]     -47.67609853 [kcal/mol]    -199.47679626 [kJ/mol]
      Ind22                       -11.59424854 [mEh]      -7.27550080 [kcal/mol]     -30.44069534 [kJ/mol]
      Exch-Ind20,r                 37.48928372 [mEh]      23.52488070 [kcal/mol]      98.42810086 [kJ/mol]
      Exch-Ind22                    5.72096547 [mEh]       3.58996003 [kcal/mol]      15.02039278 [kJ/mol]
      delta HF,r (2)                2.66094693 [mEh]       1.66976941 [kcal/mol]       6.98631521 [kJ/mol]

    Dispersion                     -3.71039220 [mEh]      -2.32830625 [kcal/mol]      -9.74163337 [kJ/mol]
      Disp20                       -3.79467607 [mEh]      -2.38119518 [kcal/mol]      -9.96292065 [kJ/mol]
      Disp21                       -0.07695792 [mEh]      -0.04829182 [kcal/mol]      -0.20205299 [kJ/mol]
      Disp22 (SDQ)                 -0.24072092 [mEh]      -0.15105466 [kcal/mol]      -0.63201269 [kJ/mol]
      Disp22 (T)                   -0.32250234 [mEh]      -0.20237327 [kcal/mol]      -0.84672977 [kJ/mol]
      Est. Disp22 (T)              -0.36977016 [mEh]      -0.23203428 [kcal/mol]      -0.97083141 [kJ/mol]
      Exch-Disp20                   0.77173288 [mEh]       0.48426969 [kcal/mol]       2.02618438 [kJ/mol]

  Total HF                       -134.93705203 [mEh]     -84.67427851 [kcal/mol]    -354.27718130 [kJ/mol]
  Total SAPT0                    -137.95999523 [mEh]     -86.57120401 [kcal/mol]    -362.21391756 [kJ/mol]
  Total SAPT2                    -131.61366083 [mEh]     -82.58881905 [kcal/mol]    -345.55161889 [kJ/mol]
  Total SAPT2+                   -132.30110983 [mEh]     -83.02019981 [kcal/mol]    -347.35651599 [kJ/mol]

  Special recipe for scaled SAPT0 (see Manual):
    Electrostatics sSAPT0        -142.40462566 [mEh]     -89.36025171 [kcal/mol]    -373.88329315 [kJ/mol]
    Exchange sSAPT0                43.29404217 [mEh]      27.16742162 [kcal/mol]     113.66849205 [kJ/mol]
    Induction sSAPT0              -35.67113430 [mEh]     -22.38397471 [kcal/mol]     -93.65455020 [kJ/mol]
    Dispersion sSAPT0              -3.01974557 [mEh]      -1.89491896 [kcal/mol]      -7.92834091 [kJ/mol]
  Total sSAPT0                   -137.80146337 [mEh]     -86.47172376 [kcal/mol]    -361.79769222 [kJ/mol]
  --------------------------------------------------------------------------------------------------------

*** Psi4 exiting successfully. Buy a developer a beer!
