                               Psi4 1.9 release

  ==> Input File <==

--------------------------------------------------------------------------
MEMORY 60 GB

molecule dimer {
1 1
Na     0.000000     0.000000     0.000000
--
0 1
O     -1.270703     1.958564     0.911769
H     -2.124725     1.551684     0.575181
H     -1.379974     2.228364     1.821269
O      0.587472    -2.201463     0.748927
H     -0.101641    -2.358357     1.431600
H      1.379076    -2.483852     1.213110
O     -2.211830    -1.319853     0.286643
H     -2.899654    -0.680785     0.484013
H     -1.960837    -1.588265     1.197980
O      1.514145     0.926826     1.650245
H      1.294798     1.672359     2.220085
H      2.399115     1.116522     1.261384
O     -0.863562     0.600979    -1.935483
H     -1.872318     0.424331    -1.975920
H     -0.615829     1.523469    -1.858067

units ang
no_reorient
no_com
symmetry c1
}

set {
basis        aug-cc-pVTZ
scf_type     df
}

energy("sapt2+")
--------------------------------------------------------------------------

  //              Dimer HF             //
    Molecular point group: c1
  Charge       = 1
  Multiplicity = 1
  Basis Set: AUG-CC-PVTZ
    Blend: AUG-CC-PVTZ
  Basis Set: (AUG-CC-PVTZ AUX)
    Blend: AUG-CC-PVTZ-JKFIT + DEF2-UNIVERSAL-JKFIT
  @DF-RHF Final Energy:  -542.05693046423698
    Total Energy =                       -542.0569304642369843
 Dipole X            :         44.0313073          -45.0469380           -1.0156307
 Dipole Y            :         -1.1279863            2.1276313            0.9996450
 Dipole Z            :        -35.0670766           37.1660809            2.0990042
 Magnitude           :                                                    2.5370484
  //            Monomer A HF           //
    Molecular point group: c1
  Multiplicity = 1
  Basis Set: AUG-CC-PVTZ
    Blend: AUG-CC-PVTZ
  Basis Set: (AUG-CC-PVTZ AUX)
    Blend: AUG-CC-PVTZ-JKFIT + DEF2-UNIVERSAL-JKFIT
  @DF-RHF Final Energy:  -161.67609039232431
    Total Energy =                       -161.6760903923243120
  //            Monomer B HF           //
    Molecular point group: c1

    Geometry (in Angstrom), charge = 0, multiplicity = 1:

       Center              X                  Y                   Z               Mass
    ------------   -----------------  -----------------  -----------------  -----------------
      Gh(NA)          0.000000000000     0.000000000000     0.000000000000    22.989769282000
         O           -1.270703000000     1.958564000000     0.911769000000    15.994914619570
         H           -2.124725000000     1.551684000000     0.575181000000     1.007825032230
         H           -1.379974000000     2.228364000000     1.821269000000     1.007825032230
         O            0.587472000000    -2.201463000000     0.748927000000    15.994914619570
         H           -0.101641000000    -2.358357000000     1.431600000000     1.007825032230
         H            1.379076000000    -2.483852000000     1.213110000000     1.007825032230
         O           -2.211830000000    -1.319853000000     0.286643000000    15.994914619570
         H           -2.899654000000    -0.680785000000     0.484013000000     1.007825032230
         H           -1.960837000000    -1.588265000000     1.197980000000     1.007825032230
         O            1.514145000000     0.926826000000     1.650245000000    15.994914619570
         H            1.294798000000     1.672359000000     2.220085000000     1.007825032230
         H            2.399115000000     1.116522000000     1.261384000000     1.007825032230
         O           -0.863562000000     0.600979000000    -1.935483000000    15.994914619570
         H           -1.872318000000     0.424331000000    -1.975920000000     1.007825032230
         H           -0.615829000000     1.523469000000    -1.858067000000     1.007825032230

  Charge       = 0
  Multiplicity = 1
  Basis Set: AUG-CC-PVTZ
    Blend: AUG-CC-PVTZ
  Basis Set: (AUG-CC-PVTZ AUX)
    Blend: AUG-CC-PVTZ-JKFIT + DEF2-UNIVERSAL-JKFIT

    Orbital Energies [Eh]
    ---------------------

    Doubly Occupied:

       1A    -20.565170     2A    -20.563215     3A    -20.548355
       4A    -20.544292     5A    -20.534263     6A     -1.345036
       7A     -1.335147     8A     -1.323168     9A     -1.321652
      10A     -1.297748    11A     -0.713694    12A     -0.704493
      13A     -0.692411    14A     -0.684527    15A     -0.670605
      16A     -0.584582    17A     -0.565907    18A     -0.559067
      19A     -0.555233    20A     -0.524024    21A     -0.509376
      22A     -0.498443    23A     -0.484429    24A     -0.480874
      25A     -0.469082

  @DF-RHF Final Energy:  -380.25951680958860

   => Energetics <=

    Nuclear Repulsion Energy =            188.9658900493978706
    One-Electron Energy =                -902.3012224163010160
    Two-Electron Energy =                 333.0758155573145132
    Total Energy =                       -380.2595168095886038
 Dipole X            :         44.2907947          -45.0469380           -0.7561433
 Dipole Y            :         -1.1808661            2.1276313            0.9467652
 Dipole Z            :        -35.2908900           37.1660809            1.8751909
 Magnitude           :                                                    2.2325900

    SAPT Results
  --------------------------------------------------------------------------------------------------------
    Electrostatics               -117.28895836 [mEh]     -73.59993254 [kcal/mol]    -307.94211776 [kJ/mol]
      Elst10,r                   -122.53508588 [mEh]     -76.89192726 [kcal/mol]    -321.71582367 [kJ/mol]
      Elst12,r                      5.24612752 [mEh]       3.29199472 [kcal/mol]      13.77370591 [kJ/mol]

    Exchange                       37.50099597 [mEh]      23.53223025 [kcal/mol]      98.45885135 [kJ/mol]
      Exch10                       33.17457981 [mEh]      20.81736312 [kcal/mol]      87.09984730 [kJ/mol]
      Exch10(S^2)                  33.11435634 [mEh]      20.77957232 [kcal/mol]      86.94173059 [kJ/mol]
      Exch11(S^2)                  -0.69266046 [mEh]      -0.43465100 [kcal/mol]      -1.81857978 [kJ/mol]
      Exch12(S^2)                   5.01907661 [mEh]       3.14951812 [kcal/mol]      13.17758383 [kJ/mol]

    Induction                     -37.43728114 [mEh]     -23.49224859 [kcal/mol]     -98.29156809 [kJ/mol]
      Ind20,r                     -65.40920510 [mEh]     -41.04489587 [kcal/mol]    -171.73184433 [kJ/mol]
      Ind22                       -10.47695264 [mEh]      -6.57438704 [kcal/mol]     -27.50723536 [kJ/mol]
      Exch-Ind20,r                 31.23091553 [mEh]      19.59769537 [kcal/mol]      81.99675744 [kJ/mol]
      Exch-Ind22                    5.00242775 [mEh]       3.13907081 [kcal/mol]      13.13387226 [kJ/mol]
      delta HF,r (2)                2.21553331 [mEh]       1.39026814 [kcal/mol]       5.81688191 [kJ/mol]

    Dispersion                     -3.01165114 [mEh]      -1.88983962 [kcal/mol]      -7.90708897 [kJ/mol]
      Disp20                       -2.98053913 [mEh]      -1.87031654 [kcal/mol]      -7.82540440 [kJ/mol]
      Disp21                       -0.09223151 [mEh]      -0.05787614 [kcal/mol]      -0.24215379 [kJ/mol]
      Disp22 (SDQ)                 -0.19590039 [mEh]      -0.12292935 [kcal/mol]      -0.51433641 [kJ/mol]
      Disp22 (T)                   -0.26161321 [mEh]      -0.16416477 [kcal/mol]      -0.68686540 [kJ/mol]
      Est. Disp22 (T)              -0.29754582 [mEh]      -0.18671282 [kcal/mol]      -0.78120644 [kJ/mol]
      Exch-Disp20                   0.55456571 [mEh]       0.34799524 [kcal/mol]       1.45601207 [kJ/mol]

  Total HF                       -121.32326232 [mEh]     -76.13149650 [kcal/mol]    -318.53418135 [kJ/mol]
  Total SAPT0                    -123.74923574 [mEh]     -77.65381780 [kcal/mol]    -324.90357368 [kJ/mol]
  Total SAPT2                    -119.65121695 [mEh]     -75.08227219 [kcal/mol]    -314.14422683 [kJ/mol]
  Total SAPT2+                   -120.23689467 [mEh]     -75.44979050 [kcal/mol]    -315.68192347 [kJ/mol]

  Special recipe for scaled SAPT0 (see Manual):
    Electrostatics sSAPT0        -122.53508588 [mEh]     -76.89192726 [kcal/mol]    -321.71582367 [kJ/mol]
    Exchange sSAPT0                33.17457981 [mEh]      20.81736312 [kcal/mol]      87.09984730 [kJ/mol]
    Induction sSAPT0              -31.79205172 [mEh]     -19.94981365 [kcal/mol]     -83.47002029 [kJ/mol]
    Dispersion sSAPT0              -2.42294223 [mEh]      -1.52041920 [kcal/mol]      -6.36143394 [kJ/mol]
  Total sSAPT0                   -123.57550002 [mEh]     -77.54479699 [kcal/mol]    -324.44743059 [kJ/mol]
  --------------------------------------------------------------------------------------------------------

*** Psi4 exiting successfully. Buy a developer a beer!
