                               Psi4 1.9 release

  ==> Input File <==

--------------------------------------------------------------------------
MEMORY 60 GB

molecule dimer {
1 1
Na     0.000000     0.000000     0.000000
--
0 1
O      0.209842    -0.922257     1.980819
H     -0.293424    -1.759493     2.013630
H      1.137281    -1.096220     2.303432
O     -0.913097     1.589898    -1.328350
H     -0.417774     2.414856    -1.349717
H     -1.803269     1.800960    -0.984765

units ang
no_reorient
no_com
symmetry c1
}

set {
basis        aug-cc-pVTZ
scf_type     df
}

energy("sapt2+")
--------------------------------------------------------------------------

  //              Dimer HF             //
    Molecular point group: c1
  Charge       = 1
  Multiplicity = 1
  Basis Set: AUG-CC-PVTZ
    Blend: AUG-CC-PVTZ
  Basis Set: (AUG-CC-PVTZ AUX)
    Blend: AUG-CC-PVTZ-JKFIT + DEF2-UNIVERSAL-JKFIT
  @DF-RHF Final Energy:  -313.85495441936121
    Total Energy =                       -313.8549544193612064
 Dipole X            :         13.1756372          -13.2341791           -0.0585420
 Dipole Y            :        -12.5698035           12.6634913            0.0936878
 Dipole Z            :        -13.0376803           13.6104349            0.5727546
 Magnitude           :                                                    0.5833116
  //            Monomer A HF           //
    Molecular point group: c1
  Multiplicity = 1
  Basis Set: AUG-CC-PVTZ
    Blend: AUG-CC-PVTZ
  Basis Set: (AUG-CC-PVTZ AUX)
    Blend: AUG-CC-PVTZ-JKFIT + DEF2-UNIVERSAL-JKFIT
  @DF-RHF Final Energy:  -161.67606067075042
    Total Energy =                       -161.6760606707504166
  //            Monomer B HF           //
    Molecular point group: c1

    Geometry (in Angstrom), charge = 0, multiplicity = 1:

       Center              X                  Y                   Z               Mass
    ------------   -----------------  -----------------  -----------------  -----------------
      Gh(NA)          0.000000000000     0.000000000000     0.000000000000    22.989769282000
         O            0.209842000000    -0.922257000000     1.980819000000    15.994914619570
         H           -0.293424000000    -1.759493000000     2.013630000000     1.007825032230
         H            1.137281000000    -1.096220000000     2.303432000000     1.007825032230
         O           -0.913097000000     1.589898000000    -1.328350000000    15.994914619570
         H           -0.417774000000     2.414856000000    -1.349717000000     1.007825032230
         H           -1.803269000000     1.800960000000    -0.984765000000     1.007825032230

  Charge       = 0
  Multiplicity = 1
  Basis Set: AUG-CC-PVTZ
    Blend: AUG-CC-PVTZ
  Basis Set: (AUG-CC-PVTZ AUX)
    Blend: AUG-CC-PVTZ-JKFIT + DEF2-UNIVERSAL-JKFIT

    Orbital Energies [Eh]
    ---------------------

    Doubly Occupied:

       1A    -20.564086     2A    -20.558360     3A     -1.335680
       4A     -1.329679     5A     -0.705805     6A     -0.702688
       7A     -0.567921     8A     -0.564703     9A     -0.500516
      10A     -0.498371

  @DF-RHF Final Energy:  -152.11482789339752

   => Energetics <=

    Nuclear Repulsion Energy =             29.8236234953785235
    One-Electron Energy =                -269.2212802851818765
    Two-Electron Energy =                  87.2828288964058459
    Total Energy =                       -152.1148278933975178
 Dipole X            :         13.2556632          -13.2341791            0.0214840
 Dipole Y            :        -12.6485818           12.6634913            0.0149095
 Dipole Z            :        -13.1620525           13.6104349            0.4483825
 Magnitude           :                                                    0.4491444

    SAPT Results
  --------------------------------------------------------------------------------------------------------
    Electrostatics                -74.10776439 [mEh]     -46.50332424 [kcal/mol]    -194.56990860 [kJ/mol]
      Elst10,r                    -76.32334986 [mEh]     -47.89362511 [kcal/mol]    -200.38692744 [kJ/mol]
      Elst12,r                      2.21558547 [mEh]       1.39030087 [kcal/mol]       5.81701884 [kJ/mol]

    Exchange                       32.73998735 [mEh]      20.54465223 [kcal/mol]      85.95882495 [kJ/mol]
      Exch10                       29.60813509 [mEh]      18.57938527 [kcal/mol]      77.73614796 [kJ/mol]
      Exch10(S^2)                  29.51930109 [mEh]      18.52364109 [kcal/mol]      77.50291432 [kJ/mol]
      Exch11(S^2)                  -0.36560737 [mEh]      -0.22942209 [kcal/mol]      -0.95990200 [kJ/mol]
      Exch12(S^2)                   3.49745963 [mEh]       2.19468905 [kcal/mol]       9.18257899 [kJ/mol]

    Induction                     -20.12286945 [mEh]     -12.62729122 [kcal/mol]     -52.83258645 [kJ/mol]
      Ind20,r                     -50.93762654 [mEh]     -31.96384322 [kcal/mol]    -133.73672005 [kJ/mol]
      Ind22                        -7.01586708 [mEh]      -4.40252306 [kcal/mol]     -18.42015647 [kJ/mol]
      Exch-Ind20,r                 30.81028318 [mEh]      19.33374458 [kcal/mol]      80.89238734 [kJ/mol]
      Exch-Ind22                    4.24363807 [mEh]       2.66292309 [kcal/mol]      11.14167023 [kJ/mol]
      delta HF,r (2)                2.77670291 [mEh]       1.74240738 [kcal/mol]       7.29023250 [kJ/mol]

    Dispersion                     -1.51390525 [mEh]      -0.94998989 [kcal/mol]      -3.97475770 [kJ/mol]
      Disp20                       -1.57578922 [mEh]      -0.98882267 [kcal/mol]      -4.13723403 [kJ/mol]
      Disp21                       -0.06772028 [mEh]      -0.04249512 [kcal/mol]      -0.17779957 [kJ/mol]
      Disp22 (SDQ)                 -0.09626374 [mEh]      -0.06040641 [kcal/mol]      -0.25274040 [kJ/mol]
      Disp22 (T)                   -0.12143814 [mEh]      -0.07620359 [kcal/mol]      -0.31883580 [kJ/mol]
      Est. Disp22 (T)              -0.14936464 [mEh]      -0.09372773 [kcal/mol]      -0.39215681 [kJ/mol]
      Exch-Disp20                   0.37523262 [mEh]       0.23546203 [kcal/mol]       0.98517312 [kJ/mol]

  Total HF                        -64.06585521 [mEh]     -40.20193109 [kcal/mol]    -168.20487969 [kJ/mol]
  Total SAPT0                     -65.26641181 [mEh]     -40.95529173 [kcal/mol]    -171.35694060 [kJ/mol]
  Total SAPT2                     -62.69120308 [mEh]     -39.33932386 [kcal/mol]    -164.59573102 [kJ/mol]
  Total SAPT2+                    -63.00455174 [mEh]     -39.53595311 [kcal/mol]    -165.41842780 [kJ/mol]

  Special recipe for scaled SAPT0 (see Manual):
    Electrostatics sSAPT0         -76.32334986 [mEh]     -47.89362511 [kcal/mol]    -200.38692744 [kJ/mol]
    Exchange sSAPT0                29.60813509 [mEh]      18.57938527 [kcal/mol]      77.73614796 [kJ/mol]
    Induction sSAPT0              -17.07164546 [mEh]     -10.71261926 [kcal/mol]     -44.82159898 [kJ/mol]
    Dispersion sSAPT0              -1.19715877 [mEh]      -0.75122847 [kcal/mol]      -3.14313992 [kJ/mol]
  Total sSAPT0                    -64.98401900 [mEh]     -40.77808757 [kcal/mol]    -170.61551838 [kJ/mol]
  --------------------------------------------------------------------------------------------------------

*** Psi4 exiting successfully. Buy a developer a beer!
