                               Psi4 1.9 release

  ==> Input File <==

--------------------------------------------------------------------------
MEMORY 60 GB

molecule dimer {
1 1
Na     0.000000     0.000000     0.000000
--
0 1
O      0.659986    -2.040507     0.606036
H      0.158925    -2.823573     0.524427
H      1.510866    -2.288362     0.337845
O      2.115452     0.634802     0.818018
H      2.351575     1.571131     0.886082
H      2.064804     0.316408     1.680790
O     -2.136022     0.705726    -0.204914
H     -2.636726     0.821809    -1.022408
H     -2.660104     0.011381     0.299743

units ang
no_reorient
no_com
symmetry c1
}

set {
basis        aug-cc-pVTZ
scf_type     df
}

energy("sapt2+")
--------------------------------------------------------------------------

  //              Dimer HF             //
    Molecular point group: c1
  Charge       = 1
  Multiplicity = 1
  Basis Set: AUG-CC-PVTZ
    Blend: AUG-CC-PVTZ
  Basis Set: (AUG-CC-PVTZ AUX)
    Blend: AUG-CC-PVTZ-JKFIT + DEF2-UNIVERSAL-JKFIT
  @DF-RHF Final Energy:  -389.94215877686298
    Total Energy =                       -389.9421587768629820
 Dipole X            :        -11.4400332           11.1582054           -0.2818279
 Dipole Y            :         14.3424149          -15.1008733           -0.7584583
 Dipole Z            :        -23.2444542           23.5452297            0.3007756
 Magnitude           :                                                    0.8632218
  //            Monomer A HF           //
    Molecular point group: c1
  Multiplicity = 1
  Basis Set: AUG-CC-PVTZ
    Blend: AUG-CC-PVTZ
  Basis Set: (AUG-CC-PVTZ AUX)
    Blend: AUG-CC-PVTZ-JKFIT + DEF2-UNIVERSAL-JKFIT
  @DF-RHF Final Energy:  -161.67607481532335
    Total Energy =                       -161.6760748153233465
  //            Monomer B HF           //
    Molecular point group: c1

    Geometry (in Angstrom), charge = 0, multiplicity = 1:

       Center              X                  Y                   Z               Mass
    ------------   -----------------  -----------------  -----------------  -----------------
      Gh(NA)          0.000000000000     0.000000000000     0.000000000000    22.989769282000
         O            0.659986000000    -2.040507000000     0.606036000000    15.994914619570
         H            0.158925000000    -2.823573000000     0.524427000000     1.007825032230
         H            1.510866000000    -2.288362000000     0.337845000000     1.007825032230
         O            2.115452000000     0.634802000000     0.818018000000    15.994914619570
         H            2.351575000000     1.571131000000     0.886082000000     1.007825032230
         H            2.064804000000     0.316408000000     1.680790000000     1.007825032230
         O           -2.136022000000     0.705726000000    -0.204914000000    15.994914619570
         H           -2.636726000000     0.821809000000    -1.022408000000     1.007825032230
         H           -2.660104000000     0.011381000000     0.299743000000     1.007825032230

  Charge       = 0
  Multiplicity = 1
  Basis Set: AUG-CC-PVTZ
    Blend: AUG-CC-PVTZ
  Basis Set: (AUG-CC-PVTZ AUX)
    Blend: AUG-CC-PVTZ-JKFIT + DEF2-UNIVERSAL-JKFIT

    Orbital Energies [Eh]
    ---------------------

    Doubly Occupied:

       1A    -20.558033     2A    -20.548192     3A    -20.543540
       4A     -1.354986     5A     -1.339126     6A     -1.325847
       7A     -0.719813     8A     -0.707392     9A     -0.686878
      10A     -0.578243    11A     -0.565600    12A     -0.561340
      13A     -0.499072    14A     -0.493336    15A     -0.490231

  @DF-RHF Final Energy:  -228.17393830299235

   => Energetics <=

    Nuclear Repulsion Energy =             68.7832370669241868
    One-Electron Energy =                -451.9710897982832876
    Two-Electron Energy =                 155.0139144283667463
    Total Energy =                       -228.1739383029923545
 Dipole X            :        -11.4721054           11.1582054           -0.3139000
 Dipole Y            :         14.4604501          -15.1008733           -0.6404231
 Dipole Z            :        -23.3852221           23.5452297            0.1600076
 Magnitude           :                                                    0.7309429

    SAPT Results
  --------------------------------------------------------------------------------------------------------
    Electrostatics                -96.80028073 [mEh]     -60.74309322 [kcal/mol]    -254.14910205 [kJ/mol]
      Elst10,r                   -100.91022876 [mEh]     -63.32212455 [kcal/mol]    -264.93976912 [kJ/mol]
      Elst12,r                      4.10994803 [mEh]       2.57903133 [kcal/mol]      10.79066707 [kJ/mol]

    Exchange                       35.73993024 [mEh]      22.42714482 [kcal/mol]      93.83517391 [kJ/mol]
      Exch10                       32.28419552 [mEh]      20.25863854 [kcal/mol]      84.76214365 [kJ/mol]
      Exch10(S^2)                  32.22169466 [mEh]      20.21941866 [kcal/mol]      84.59804768 [kJ/mol]
      Exch11(S^2)                  -0.50586824 [mEh]      -0.31743711 [kcal/mol]      -1.32815689 [kJ/mol]
      Exch12(S^2)                   3.96160296 [mEh]       2.48594339 [kcal/mol]      10.40118715 [kJ/mol]

    Induction                     -27.14751084 [mEh]     -17.03532024 [kcal/mol]     -71.27577990 [kJ/mol]
      Ind20,r                     -56.98108206 [mEh]     -35.75616882 [kcal/mol]    -149.60381032 [kJ/mol]
      Ind22                        -7.88270752 [mEh]      -4.94647365 [kcal/mol]     -20.69604574 [kJ/mol]
      Exch-Ind20,r                 30.75648305 [mEh]      19.29998449 [kcal/mol]      80.75113512 [kJ/mol]
      Exch-Ind22                    4.25482198 [mEh]       2.66994110 [kcal/mol]      11.17103356 [kJ/mol]
      delta HF,r (2)                2.70497371 [mEh]       1.69739663 [kcal/mol]       7.10190749 [kJ/mol]

    Dispersion                     -2.08328379 [mEh]      -1.30728032 [kcal/mol]      -5.46966085 [kJ/mol]
      Disp20                       -2.12670940 [mEh]      -1.33453030 [kcal/mol]      -5.58367476 [kJ/mol]
      Disp21                       -0.08302399 [mEh]      -0.05209834 [kcal/mol]      -0.21797945 [kJ/mol]
      Disp22 (SDQ)                 -0.13151462 [mEh]      -0.08252667 [kcal/mol]      -0.34529158 [kJ/mol]
      Disp22 (T)                   -0.17151233 [mEh]      -0.10762561 [kcal/mol]      -0.45030555 [kJ/mol]
      Est. Disp22 (T)              -0.20302245 [mEh]      -0.12739851 [kcal/mol]      -0.53303537 [kJ/mol]
      Exch-Disp20                   0.46098666 [mEh]       0.28927350 [kcal/mol]       1.21032031 [kJ/mol]

  Total HF                        -92.14565855 [mEh]     -57.82227371 [kcal/mol]    -241.92839319 [kJ/mol]
  Total SAPT0                     -93.81138129 [mEh]     -58.86753051 [kcal/mol]    -246.30174764 [kJ/mol]
  Total SAPT2                     -89.87358408 [mEh]     -56.39652545 [kcal/mol]    -235.96306249 [kJ/mol]
  Total SAPT2+                    -90.29114513 [mEh]     -56.65854897 [kcal/mol]    -237.05936888 [kJ/mol]

  Special recipe for scaled SAPT0 (see Manual):
    Electrostatics sSAPT0        -100.91022876 [mEh]     -63.32212455 [kcal/mol]    -264.93976912 [kJ/mol]
    Exchange sSAPT0                32.28419552 [mEh]      20.25863854 [kcal/mol]      84.76214365 [kJ/mol]
    Induction sSAPT0              -23.34030163 [mEh]     -14.64626039 [kcal/mol]     -61.27995348 [kJ/mol]
    Dispersion sSAPT0              -1.66303499 [mEh]      -1.04357021 [kcal/mol]      -4.36629776 [kJ/mol]
  Total sSAPT0                    -93.62936986 [mEh]     -58.75331661 [kcal/mol]    -245.82387671 [kJ/mol]
  --------------------------------------------------------------------------------------------------------

*** Psi4 exiting successfully. Buy a developer a beer!
