                               Psi4 1.9 release

  ==> Input File <==

--------------------------------------------------------------------------
MEMORY 60 GB

molecule dimer {
1 1
Na     0.000000     0.000000     0.000000
--
0 1
O      0.112621    -1.386806    -1.972606
H      0.672583    -1.550070    -2.775900
H     -0.603129    -2.048594    -1.903750
O      1.852574    -1.386479     0.816134
H      2.242350    -2.087796     0.203988
H      1.341615    -1.750473     1.542276
O     -2.022339     1.221625    -0.636373
H     -2.927026     0.757137    -0.600158
H     -1.792091     1.337729    -1.566912
O     -1.416620    -1.275424     1.492934
H     -2.160042    -1.185167     2.079025
H     -0.840556    -1.926141     1.953126
O      2.144001     1.442874    -0.647730
H      2.575039     1.174574    -1.498240
H      2.815913     1.315215     0.053847
O      0.138862     1.360945     1.935363
H      0.721431     2.052917     2.221916
H     -0.531806     1.357180     2.629171

units ang
no_reorient
no_com
symmetry c1
}

set {
basis        aug-cc-pVTZ
scf_type     df
}

energy("sapt2+")
--------------------------------------------------------------------------

  //              Dimer HF             //
    Molecular point group: c1
  Charge       = 1
  Multiplicity = 1
  Basis Set: AUG-CC-PVTZ
    Blend: AUG-CC-PVTZ
  Basis Set: (AUG-CC-PVTZ AUX)
    Blend: AUG-CC-PVTZ-JKFIT + DEF2-UNIVERSAL-JKFIT
  @DF-RHF Final Energy:  -618.14823097421277
    Total Energy =                       -618.1482309742127654
 Dipole X            :        -15.1676676           15.0933805           -0.0742871
 Dipole Y            :          3.4975524           -5.1771107           -1.6795583
 Dipole Z            :        -19.0704751           19.3511073            0.2806323
 Magnitude           :                                                    1.7044616
  //            Monomer A HF           //
    Molecular point group: c1
  Multiplicity = 1
  Basis Set: AUG-CC-PVTZ
    Blend: AUG-CC-PVTZ
  Basis Set: (AUG-CC-PVTZ AUX)
    Blend: AUG-CC-PVTZ-JKFIT + DEF2-UNIVERSAL-JKFIT
  @DF-RHF Final Energy:  -161.67609432967561
    Total Energy =                       -161.6760943296756068
  //            Monomer B HF           //
    Molecular point group: c1

    Geometry (in Angstrom), charge = 0, multiplicity = 1:

       Center              X                  Y                   Z               Mass
    ------------   -----------------  -----------------  -----------------  -----------------
      Gh(NA)          0.000000000000     0.000000000000     0.000000000000    22.989769282000
         O            0.112621000000    -1.386806000000    -1.972606000000    15.994914619570
         H            0.672583000000    -1.550070000000    -2.775900000000     1.007825032230
         H           -0.603129000000    -2.048594000000    -1.903750000000     1.007825032230
         O            1.852574000000    -1.386479000000     0.816134000000    15.994914619570
         H            2.242350000000    -2.087796000000     0.203988000000     1.007825032230
         H            1.341615000000    -1.750473000000     1.542276000000     1.007825032230
         O           -2.022339000000     1.221625000000    -0.636373000000    15.994914619570
         H           -2.927026000000     0.757137000000    -0.600158000000     1.007825032230
         H           -1.792091000000     1.337729000000    -1.566912000000     1.007825032230
         O           -1.416620000000    -1.275424000000     1.492934000000    15.994914619570
         H           -2.160042000000    -1.185167000000     2.079025000000     1.007825032230
         H           -0.840556000000    -1.926141000000     1.953126000000     1.007825032230
         O            2.144001000000     1.442874000000    -0.647730000000    15.994914619570
         H            2.575039000000     1.174574000000    -1.498240000000     1.007825032230
         H            2.815913000000     1.315215000000     0.053847000000     1.007825032230
         O            0.138862000000     1.360945000000     1.935363000000    15.994914619570
         H            0.721431000000     2.052917000000     2.221916000000     1.007825032230
         H           -0.531806000000     1.357180000000     2.629171000000     1.007825032230

  Charge       = 0
  Multiplicity = 1
  Basis Set: AUG-CC-PVTZ
    Blend: AUG-CC-PVTZ
  Basis Set: (AUG-CC-PVTZ AUX)
    Blend: AUG-CC-PVTZ-JKFIT + DEF2-UNIVERSAL-JKFIT

    Orbital Energies [Eh]
    ---------------------

    Doubly Occupied:

       1A    -20.552070     2A    -20.546585     3A    -20.535305
       4A    -20.526633     5A    -20.526242     6A    -20.521369
       7A     -1.332672     8A     -1.313149     9A     -1.308674
      10A     -1.302718    11A     -1.293862    12A     -1.289603
      13A     -0.698745    14A     -0.691834    15A     -0.683622
      16A     -0.668446    17A     -0.661258    18A     -0.659853
      19A     -0.565391    20A     -0.542492    21A     -0.540837
      22A     -0.531369    23A     -0.526667    24A     -0.523692
      25A     -0.491282    26A     -0.486793    27A     -0.469057
      28A     -0.462229    29A     -0.460295    30A     -0.459444

  @DF-RHF Final Energy:  -456.31316123600857

   => Energetics <=

    Nuclear Repulsion Energy =            263.0865766598967070
    One-Electron Energy =               -1156.4550887902735212
    Two-Electron Energy =                 437.0553508943681891
    Total Energy =                       -456.3131612360085683
 Dipole X            :        -15.2081866           15.0933805           -0.1148061
 Dipole Y            :          3.5978216           -5.1771107           -1.5792891
 Dipole Z            :        -19.1750396           19.3511073            0.1760678
 Magnitude           :                                                    1.5932151

    SAPT Results
  --------------------------------------------------------------------------------------------------------
    Electrostatics               -139.15152861 [mEh]     -87.31890249 [kcal/mol]    -365.34228804 [kJ/mol]
      Elst10,r                   -148.61510465 [mEh]     -93.25738611 [kcal/mol]    -390.18890349 [kJ/mol]
      Elst12,r                      9.46357603 [mEh]       5.93848362 [kcal/mol]      24.84661546 [kJ/mol]

    Exchange                       29.17827696 [mEh]      18.30964522 [kcal/mol]      76.60755560 [kJ/mol]
      Exch10                       25.75430654 [mEh]      16.16107135 [kcal/mol]      67.61792252 [kJ/mol]
      Exch10(S^2)                  25.73828925 [mEh]      16.15102034 [kcal/mol]      67.57586911 [kJ/mol]
      Exch11(S^2)                  -0.60438385 [mEh]      -0.37925659 [kcal/mol]      -1.58680959 [kJ/mol]
      Exch12(S^2)                   4.02835427 [mEh]       2.52783047 [kcal/mol]      10.57644268 [kJ/mol]

    Induction                     -41.93122744 [mEh]     -26.31224246 [kcal/mol]    -110.09042247 [kJ/mol]
      Ind20,r                     -59.96210364 [mEh]     -37.62678810 [kcal/mol]    -157.43048141 [kJ/mol]
      Ind22                        -9.24663269 [mEh]      -5.80234961 [kcal/mol]     -24.27703078 [kJ/mol]
      Exch-Ind20,r                 22.24279503 [mEh]      13.95756461 [kcal/mol]      58.39845031 [kJ/mol]
      Exch-Ind22                    3.43001568 [mEh]       2.15236733 [kcal/mol]       9.00550493 [kJ/mol]
      delta HF,r (2)                1.60469818 [mEh]       1.00696331 [kcal/mol]       4.21313448 [kJ/mol]

    Dispersion                     -3.19214407 [mEh]      -2.00310065 [kcal/mol]      -8.38097310 [kJ/mol]
      Disp20                       -3.07463714 [mEh]      -1.92936393 [kcal/mol]      -8.07245870 [kJ/mol]
      Disp21                       -0.07479947 [mEh]      -0.04693737 [kcal/mol]      -0.19638598 [kJ/mol]
      Disp22 (SDQ)                 -0.20172854 [mEh]      -0.12658657 [kcal/mol]      -0.52963821 [kJ/mol]
      Disp22 (T)                   -0.27460104 [mEh]      -0.17231475 [kcal/mol]      -0.72096492 [kJ/mol]
      Est. Disp22 (T)              -0.30957458 [mEh]      -0.19426098 [kcal/mol]      -0.81278796 [kJ/mol]
      Exch-Disp20                   0.46859566 [mEh]       0.29404822 [kcal/mol]       1.23029774 [kJ/mol]

  Total HF                       -158.97540853 [mEh]     -99.75857495 [kcal/mol]    -417.38987759 [kJ/mol]
  Total SAPT0                    -161.58145001 [mEh]    -101.39389067 [kcal/mol]    -424.23203855 [kJ/mol]
  Total SAPT2                    -154.51052057 [mEh]     -96.95681545 [kcal/mol]    -405.66731586 [kJ/mol]
  Total SAPT2+                   -155.09662316 [mEh]     -97.32460038 [kcal/mol]    -407.20612800 [kJ/mol]

  Special recipe for scaled SAPT0 (see Manual):
    Electrostatics sSAPT0        -148.61510465 [mEh]     -93.25738611 [kcal/mol]    -390.18890349 [kJ/mol]
    Exchange sSAPT0                25.75430654 [mEh]      16.16107135 [kcal/mol]      67.61792252 [kJ/mol]
    Induction sSAPT0              -36.07305857 [mEh]     -22.63618600 [kcal/mol]     -94.70980224 [kJ/mol]
    Dispersion sSAPT0              -2.60516609 [mEh]      -1.63476640 [kcal/mol]      -6.83986263 [kJ/mol]
  Total sSAPT0                   -161.53902277 [mEh]    -101.36726717 [kcal/mol]    -424.12064585 [kJ/mol]
  --------------------------------------------------------------------------------------------------------

*** Psi4 exiting successfully. Buy a developer a beer!
