                               Psi4 1.9 release

  ==> Input File <==

--------------------------------------------------------------------------
MEMORY 60 GB

molecule dimer {
1 1
Na     0.000000     0.000000     0.000000
--
0 1
O     -0.033562     0.651864    -2.283036
H      0.894796     0.893756    -2.460802
H     -0.574548     1.432965    -2.476385
O      2.159584    -0.736393     0.244526
H      2.484224    -0.797737    -0.668585
H      2.769476    -0.050577     0.618321
O      1.010079     1.997128     0.381980
H      1.335088     1.941477     1.298553
H      1.836526     2.246424    -0.124748
O     -0.693443    -2.201180    -0.087038
H     -1.384165    -2.200407     0.626177
H     -1.159158    -2.555826    -0.870984
O     -0.562174    -0.147253     2.221974
H      0.059516    -0.569628     2.892423
H     -0.988942     0.664075     2.631446
O     -2.540820     0.600282    -0.110639
H     -2.964940    -0.234719     0.142310
H     -2.996517     1.319936     0.377222

units ang
no_reorient
no_com
symmetry c1
}

set {
basis        aug-cc-pVTZ
scf_type     df
}

energy("sapt2+")
--------------------------------------------------------------------------

  //              Dimer HF             //
    Molecular point group: c1
  Charge       = 1
  Multiplicity = 1
  Basis Set: AUG-CC-PVTZ
    Blend: AUG-CC-PVTZ
  Basis Set: (AUG-CC-PVTZ AUX)
    Blend: AUG-CC-PVTZ-JKFIT + DEF2-UNIVERSAL-JKFIT
  @DF-RHF Final Energy:  -618.13916740075683
    Total Energy =                       -618.1391674007568326
 Dipole X            :         11.6157083          -11.2841821            0.3315262
 Dipole Y            :         -5.2743830            6.4351278            1.1607448
 Dipole Z            :         -8.4171432            9.3108394            0.8936961
 Magnitude           :                                                    1.5019757
  //            Monomer A HF           //
    Molecular point group: c1
  Multiplicity = 1
  Basis Set: AUG-CC-PVTZ
    Blend: AUG-CC-PVTZ
  Basis Set: (AUG-CC-PVTZ AUX)
    Blend: AUG-CC-PVTZ-JKFIT + DEF2-UNIVERSAL-JKFIT
  @DF-RHF Final Energy:  -161.67609858853589
    Total Energy =                       -161.6760985885358934
  //            Monomer B HF           //
    Molecular point group: c1

    Geometry (in Angstrom), charge = 0, multiplicity = 1:

       Center              X                  Y                   Z               Mass
    ------------   -----------------  -----------------  -----------------  -----------------
      Gh(NA)          0.000000000000     0.000000000000     0.000000000000    22.989769282000
         O           -0.033562000000     0.651864000000    -2.283036000000    15.994914619570
         H            0.894796000000     0.893756000000    -2.460802000000     1.007825032230
         H           -0.574548000000     1.432965000000    -2.476385000000     1.007825032230
         O            2.159584000000    -0.736393000000     0.244526000000    15.994914619570
         H            2.484224000000    -0.797737000000    -0.668585000000     1.007825032230
         H            2.769476000000    -0.050577000000     0.618321000000     1.007825032230
         O            1.010079000000     1.997128000000     0.381980000000    15.994914619570
         H            1.335088000000     1.941477000000     1.298553000000     1.007825032230
         H            1.836526000000     2.246424000000    -0.124748000000     1.007825032230
         O           -0.693443000000    -2.201180000000    -0.087038000000    15.994914619570
         H           -1.384165000000    -2.200407000000     0.626177000000     1.007825032230
         H           -1.159158000000    -2.555826000000    -0.870984000000     1.007825032230
         O           -0.562174000000    -0.147253000000     2.221974000000    15.994914619570
         H            0.059516000000    -0.569628000000     2.892423000000     1.007825032230
         H           -0.988942000000     0.664075000000     2.631446000000     1.007825032230
         O           -2.540820000000     0.600282000000    -0.110639000000    15.994914619570
         H           -2.964940000000    -0.234719000000     0.142310000000     1.007825032230
         H           -2.996517000000     1.319936000000     0.377222000000     1.007825032230

  Charge       = 0
  Multiplicity = 1
  Basis Set: AUG-CC-PVTZ
    Blend: AUG-CC-PVTZ
  Basis Set: (AUG-CC-PVTZ AUX)
    Blend: AUG-CC-PVTZ-JKFIT + DEF2-UNIVERSAL-JKFIT

    Orbital Energies [Eh]
    ---------------------

    Doubly Occupied:

       1A    -20.549919     2A    -20.549846     3A    -20.539831
       4A    -20.539117     5A    -20.528999     6A    -20.524849
       7A     -1.318940     8A     -1.313448     9A     -1.310015
      10A     -1.304310    11A     -1.303832    12A     -1.292261
      13A     -0.684773    14A     -0.678837    15A     -0.677010
      16A     -0.673485    17A     -0.666012    18A     -0.654871
      19A     -0.561098    20A     -0.551844    21A     -0.546033
      22A     -0.540688    23A     -0.534419    24A     -0.528204
      25A     -0.498575    26A     -0.480460    27A     -0.476870
      28A     -0.465729    29A     -0.463237    30A     -0.458342

  @DF-RHF Final Energy:  -456.30819485015286

   => Energetics <=

    Nuclear Repulsion Energy =            271.4845359256283928
    One-Electron Energy =               -1173.1537426500060519
    Two-Electron Energy =                 445.3610118742248005
    Total Energy =                       -456.3081948501528586
 Dipole X            :         11.5949886          -11.2841821            0.3108066
 Dipole Y            :         -5.3495173            6.4351278            1.0856105
 Dipole Z            :         -8.5104290            9.3108394            0.8004104
 Magnitude           :                                                    1.3841271

    SAPT Results
  --------------------------------------------------------------------------------------------------------
    Electrostatics               -150.49179695 [mEh]     -94.43502831 [kcal/mol]    -395.11615845 [kJ/mol]
      Elst10,r                   -159.03358052 [mEh]     -99.79507843 [kcal/mol]    -417.54260814 [kJ/mol]
      Elst12,r                      8.54178358 [mEh]       5.36005012 [kcal/mol]      22.42644969 [kJ/mol]

    Exchange                       48.99291369 [mEh]      30.74351749 [kcal/mol]     128.63087718 [kJ/mol]
      Exch10                       43.78643012 [mEh]      27.47639972 [kcal/mol]     114.96125644 [kJ/mol]
      Exch10(S^2)                  43.72950063 [mEh]      27.44067593 [kcal/mol]     114.81178807 [kJ/mol]
      Exch11(S^2)                  -1.11922989 [mEh]      -0.70232736 [kcal/mol]      -2.93853767 [kJ/mol]
      Exch12(S^2)                   6.32571346 [mEh]       3.96944512 [kcal/mol]      16.60815840 [kJ/mol]

    Induction                     -46.40580097 [mEh]     -29.12007975 [kcal/mol]    -121.83841366 [kJ/mol]
      Ind20,r                     -79.35551000 [mEh]     -49.79633432 [kcal/mol]    -208.34786280 [kJ/mol]
      Ind22                       -12.77903710 [mEh]      -8.01896684 [kcal/mol]     -33.55135727 [kJ/mol]
      Exch-Ind20,r                 37.25921201 [mEh]      23.38050852 [kcal/mol]      97.82404764 [kJ/mol]
      Exch-Ind22                    6.00004779 [mEh]       3.76508683 [kcal/mol]      15.75312330 [kJ/mol]
      delta HF,r (2)                2.46948633 [mEh]       1.54962607 [kcal/mol]       6.48363547 [kJ/mol]

    Dispersion                     -4.19631635 [mEh]      -2.63322826 [kcal/mol]     -11.01742705 [kJ/mol]
      Disp20                       -4.24763889 [mEh]      -2.66543365 [kcal/mol]     -11.15217438 [kJ/mol]
      Disp21                       -0.07037712 [mEh]      -0.04416231 [kcal/mol]      -0.18477510 [kJ/mol]
      Disp22 (SDQ)                 -0.28042604 [mEh]      -0.17597000 [kcal/mol]      -0.73625846 [kJ/mol]
      Disp22 (T)                   -0.37932258 [mEh]      -0.23802851 [kcal/mol]      -0.99591130 [kJ/mol]
      Est. Disp22 (T)              -0.42744036 [mEh]      -0.26822287 [kcal/mol]      -1.12224450 [kJ/mol]
      Exch-Disp20                   0.82956606 [mEh]       0.52056056 [kcal/mol]       2.17802539 [kJ/mol]

  Total HF                       -154.87396207 [mEh]     -97.18487844 [kcal/mol]    -406.62153139 [kJ/mol]
  Total SAPT0                    -158.29203490 [mEh]     -99.32975152 [kcal/mol]    -415.59568037 [kJ/mol]
  Total SAPT2                    -151.32275706 [mEh]     -94.95646365 [kcal/mol]    -397.29784392 [kJ/mol]
  Total SAPT2+                   -152.10100057 [mEh]     -95.44481883 [kcal/mol]    -399.34112198 [kJ/mol]

  Special recipe for scaled SAPT0 (see Manual):
    Electrostatics sSAPT0        -159.03358052 [mEh]     -99.79507843 [kcal/mol]    -417.54260814 [kJ/mol]
    Exchange sSAPT0                43.78643012 [mEh]      27.47639972 [kcal/mol]     114.96125644 [kJ/mol]
    Induction sSAPT0              -39.48110380 [mEh]     -24.77476667 [kcal/mol]    -103.65762374 [kJ/mol]
    Dispersion sSAPT0              -3.41482869 [mEh]      -2.14283735 [kcal/mol]      -8.96563148 [kJ/mol]
  Total sSAPT0                   -158.14308289 [mEh]     -99.23628272 [kcal/mol]    -415.20460692 [kJ/mol]
  --------------------------------------------------------------------------------------------------------

*** Psi4 exiting successfully. Buy a developer a beer!
