                               Psi4 1.9 release

  ==> Input File <==

--------------------------------------------------------------------------
MEMORY 60 GB

molecule dimer {
1 1
Na     0.000000     0.000000     0.000000
--
0 1
O     -0.326768     2.408225     0.061285
H      0.544784     2.772753    -0.175390
H     -0.732186     2.969370     0.737395
O      0.756241     0.217993     2.191234
H      0.298885    -0.587551     2.571149
H      1.393189     0.622836     2.815605
O      1.186850    -2.317272     0.164521
H      1.872732    -2.329814     0.850027
H      0.683306    -3.146135     0.325061
O      1.885007     0.747789    -1.167856
H      2.689228     0.780065    -0.668381
H      2.068393     0.776155    -2.104132
O     -1.476463     0.638790    -1.711258
H     -0.833314     1.324452    -1.599428
H     -2.279710     1.059435    -1.296832

units ang
no_reorient
no_com
symmetry c1
}

set {
basis        aug-cc-pVTZ
scf_type     df
}

energy("sapt2+")
--------------------------------------------------------------------------

  //              Dimer HF             //
    Molecular point group: c1
  Charge       = 1
  Multiplicity = 1
  Basis Set: AUG-CC-PVTZ
    Blend: AUG-CC-PVTZ
  Basis Set: (AUG-CC-PVTZ AUX)
    Blend: AUG-CC-PVTZ-JKFIT + DEF2-UNIVERSAL-JKFIT
  @DF-RHF Final Energy:  -542.07867832451495
    Total Energy =                       -542.0786783245150673
 Dipole X            :        -39.9570279           41.3930203            1.4359923
 Dipole Y            :        -32.8797297           33.6480212            0.7682915
 Dipole Z            :          5.8939603           -4.2358551            1.6581052
 Magnitude           :                                                    2.3241469
  //            Monomer A HF           //
    Molecular point group: c1
  Multiplicity = 1
  Basis Set: AUG-CC-PVTZ
    Blend: AUG-CC-PVTZ
  Basis Set: (AUG-CC-PVTZ AUX)
    Blend: AUG-CC-PVTZ-JKFIT + DEF2-UNIVERSAL-JKFIT
  @DF-RHF Final Energy:  -161.67609176072096
    Total Energy =                       -161.6760917607209649
  //            Monomer B HF           //
    Molecular point group: c1

    Geometry (in Angstrom), charge = 0, multiplicity = 1:

       Center              X                  Y                   Z               Mass
    ------------   -----------------  -----------------  -----------------  -----------------
      Gh(NA)          0.000000000000     0.000000000000     0.000000000000    22.989769282000
         O           -0.326768000000     2.408225000000     0.061285000000    15.994914619570
         H            0.544784000000     2.772753000000    -0.175390000000     1.007825032230
         H           -0.732186000000     2.969370000000     0.737395000000     1.007825032230
         O            0.756241000000     0.217993000000     2.191234000000    15.994914619570
         H            0.298885000000    -0.587551000000     2.571149000000     1.007825032230
         H            1.393189000000     0.622836000000     2.815605000000     1.007825032230
         O            1.186850000000    -2.317272000000     0.164521000000    15.994914619570
         H            1.872732000000    -2.329814000000     0.850027000000     1.007825032230
         H            0.683306000000    -3.146135000000     0.325061000000     1.007825032230
         O            1.885007000000     0.747789000000    -1.167856000000    15.994914619570
         H            2.689228000000     0.780065000000    -0.668381000000     1.007825032230
         H            2.068393000000     0.776155000000    -2.104132000000     1.007825032230
         O           -1.476463000000     0.638790000000    -1.711258000000    15.994914619570
         H           -0.833314000000     1.324452000000    -1.599428000000     1.007825032230
         H           -2.279710000000     1.059435000000    -1.296832000000     1.007825032230

  Charge       = 0
  Multiplicity = 1
  Basis Set: AUG-CC-PVTZ
    Blend: AUG-CC-PVTZ
  Basis Set: (AUG-CC-PVTZ AUX)
    Blend: AUG-CC-PVTZ-JKFIT + DEF2-UNIVERSAL-JKFIT

    Orbital Energies [Eh]
    ---------------------

    Doubly Occupied:

       1A    -20.553309     2A    -20.548195     3A    -20.548017
       4A    -20.544078     5A    -20.507829     6A     -1.334667
       7A     -1.327887     8A     -1.322036     9A     -1.316421
      10A     -1.287732    11A     -0.714453    12A     -0.703659
      13A     -0.699162    14A     -0.682958    15A     -0.646637
      16A     -0.570480    17A     -0.559879    18A     -0.552732
      19A     -0.544642    20A     -0.520355    21A     -0.496023
      22A     -0.490415    23A     -0.485718    24A     -0.479933
      25A     -0.448250

  @DF-RHF Final Energy:  -380.27723945605794

   => Energetics <=

    Nuclear Repulsion Energy =            190.1820364428970151
    One-Electron Energy =                -905.1476137601339360
    Two-Electron Energy =                 334.6883378611789794
    Total Energy =                       -380.2772394560579414
 Dipole X            :        -40.1897411           41.3930203            1.2032791
 Dipole Y            :        -33.1116511           33.6480212            0.5363701
 Dipole Z            :          5.8656567           -4.2358551            1.6298016
 Magnitude           :                                                    2.0956686

    SAPT Results
  --------------------------------------------------------------------------------------------------------
    Electrostatics               -115.77455212 [mEh]     -72.64962828 [kcal/mol]    -303.96604472 [kJ/mol]
      Elst10,r                   -122.28414663 [mEh]     -76.73446050 [kcal/mol]    -321.05698275 [kJ/mol]
      Elst12,r                      6.50959451 [mEh]       4.08483223 [kcal/mol]      17.09093803 [kJ/mol]

    Exchange                       33.29189891 [mEh]      20.89098197 [kcal/mol]      87.40786855 [kJ/mol]
      Exch10                       29.43118740 [mEh]      18.46834892 [kcal/mol]      77.27157187 [kJ/mol]
      Exch10(S^2)                  29.39339325 [mEh]      18.44463273 [kcal/mol]      77.17234336 [kJ/mol]
      Exch11(S^2)                  -0.64342179 [mEh]      -0.40375327 [kcal/mol]      -1.68930369 [kJ/mol]
      Exch12(S^2)                   4.50413331 [mEh]       2.82638632 [kcal/mol]      11.82560037 [kJ/mol]

    Induction                     -37.88564554 [mEh]     -23.77360150 [kcal/mol]     -99.46874866 [kJ/mol]
      Ind20,r                     -61.03854611 [mEh]     -38.30226595 [kcal/mol]    -160.25668073 [kJ/mol]
      Ind22                        -9.57102615 [mEh]      -6.00590958 [kcal/mol]     -25.12872570 [kJ/mol]
      Exch-Ind20,r                 26.65465295 [mEh]      16.72604725 [kcal/mol]      69.98178168 [kJ/mol]
      Exch-Ind22                    4.17952911 [mEh]       2.62269411 [kcal/mol]      10.97335217 [kJ/mol]
      delta HF,r (2)                1.88974465 [mEh]       1.18583267 [kcal/mol]       4.96152391 [kJ/mol]

    Dispersion                     -3.04484262 [mEh]      -1.91066759 [kcal/mol]      -7.99423320 [kJ/mol]
      Disp20                       -2.98421341 [mEh]      -1.87262219 [kcal/mol]      -7.83505123 [kJ/mol]
      Disp21                       -0.07666018 [mEh]      -0.04810499 [kcal/mol]      -0.20127128 [kJ/mol]
      Disp22 (SDQ)                 -0.19460190 [mEh]      -0.12211454 [kcal/mol]      -0.51092723 [kJ/mol]
      Disp22 (T)                   -0.25876500 [mEh]      -0.16237749 [kcal/mol]      -0.67938743 [kJ/mol]
      Est. Disp22 (T)              -0.29685092 [mEh]      -0.18627677 [kcal/mol]      -0.77938199 [kJ/mol]
      Exch-Disp20                   0.50748380 [mEh]       0.31845089 [kcal/mol]       1.33239853 [kJ/mol]

  Total HF                       -125.34710774 [mEh]     -78.65649761 [kcal/mol]    -329.09878602 [kJ/mol]
  Total SAPT0                    -127.82383735 [mEh]     -80.21066891 [kcal/mol]    -335.60143872 [kJ/mol]
  Total SAPT2                    -122.84502836 [mEh]     -77.08641910 [kcal/mol]    -322.52957753 [kJ/mol]
  Total SAPT2+                   -123.41314137 [mEh]     -77.44291540 [kcal/mol]    -324.02115804 [kJ/mol]

  Special recipe for scaled SAPT0 (see Manual):
    Electrostatics sSAPT0        -122.28414663 [mEh]     -76.73446050 [kcal/mol]    -321.05698275 [kJ/mol]
    Exchange sSAPT0                29.43118740 [mEh]      18.46834892 [kcal/mol]      77.27157187 [kJ/mol]
    Induction sSAPT0              -32.39119826 [mEh]     -20.32578378 [kcal/mol]     -85.04307933 [kJ/mol]
    Dispersion sSAPT0              -2.47476952 [mEh]      -1.55294132 [kcal/mol]      -6.49750648 [kJ/mol]
  Total sSAPT0                   -127.71892702 [mEh]     -80.14483668 [kcal/mol]    -335.32599669 [kJ/mol]
  --------------------------------------------------------------------------------------------------------

*** Psi4 exiting successfully. Buy a developer a beer!
