                               Psi4 1.9 release

  ==> Input File <==

--------------------------------------------------------------------------
MEMORY 60 GB

molecule dimer {
1 1
Na     0.000000     0.000000     0.000000
--
0 1
O      0.056153    -1.593017    -1.588907
H     -0.422819    -1.289136    -2.393865
H     -0.138369    -2.503753    -1.378373
O      1.408983    -1.281787     1.277252
H      0.964298    -1.922010     1.792464
H      1.991702    -0.868205     1.920136
O     -1.809137     1.083746    -1.258510
H     -1.679558     1.887221    -1.716686
H     -2.630287     1.152332    -0.772428
O      1.718985     1.693094    -0.096897
H      2.245607     1.434703     0.635177
H      1.263609     2.472586     0.090106
O     -1.030025     1.048290     2.059206
H     -0.379602     1.376428     2.604273
H     -1.526575     0.492561     2.662498

units ang
no_reorient
no_com
symmetry c1
}

set {
basis        aug-cc-pVTZ
scf_type     df
}

energy("sapt2+")
--------------------------------------------------------------------------

  //              Dimer HF             //
    Molecular point group: c1
  Charge       = 1
  Multiplicity = 1
  Basis Set: AUG-CC-PVTZ
    Blend: AUG-CC-PVTZ
  Basis Set: (AUG-CC-PVTZ AUX)
    Blend: AUG-CC-PVTZ-JKFIT + DEF2-UNIVERSAL-JKFIT
  @DF-RHF Final Energy:  -542.09142260999556
    Total Energy =                       -542.0914226099955613
 Dipole X            :         -5.2930074            4.6254411           -0.6675663
 Dipole Y            :        -18.3068080           18.5860895            0.2792815
 Dipole Z            :        -10.6402046           12.4352558            1.7950513
 Magnitude           :                                                    1.9354204
  //            Monomer A HF           //
    Molecular point group: c1
  Multiplicity = 1
  Basis Set: AUG-CC-PVTZ
    Blend: AUG-CC-PVTZ
  Basis Set: (AUG-CC-PVTZ AUX)
    Blend: AUG-CC-PVTZ-JKFIT + DEF2-UNIVERSAL-JKFIT
  @DF-RHF Final Energy:  -161.67609115488926
    Total Energy =                       -161.6760911548892636
  //            Monomer B HF           //
    Molecular point group: c1

    Geometry (in Angstrom), charge = 0, multiplicity = 1:

       Center              X                  Y                   Z               Mass
    ------------   -----------------  -----------------  -----------------  -----------------
      Gh(NA)          0.000000000000     0.000000000000     0.000000000000    22.989769282000
         O            0.056153000000    -1.593017000000    -1.588907000000    15.994914619570
         H           -0.422819000000    -1.289136000000    -2.393865000000     1.007825032230
         H           -0.138369000000    -2.503753000000    -1.378373000000     1.007825032230
         O            1.408983000000    -1.281787000000     1.277252000000    15.994914619570
         H            0.964298000000    -1.922010000000     1.792464000000     1.007825032230
         H            1.991702000000    -0.868205000000     1.920136000000     1.007825032230
         O           -1.809137000000     1.083746000000    -1.258510000000    15.994914619570
         H           -1.679558000000     1.887221000000    -1.716686000000     1.007825032230
         H           -2.630287000000     1.152332000000    -0.772428000000     1.007825032230
         O            1.718985000000     1.693094000000    -0.096897000000    15.994914619570
         H            2.245607000000     1.434703000000     0.635177000000     1.007825032230
         H            1.263609000000     2.472586000000     0.090106000000     1.007825032230
         O           -1.030025000000     1.048290000000     2.059206000000    15.994914619570
         H           -0.379602000000     1.376428000000     2.604273000000     1.007825032230
         H           -1.526575000000     0.492561000000     2.662498000000     1.007825032230

  Charge       = 0
  Multiplicity = 1
  Basis Set: AUG-CC-PVTZ
    Blend: AUG-CC-PVTZ
  Basis Set: (AUG-CC-PVTZ AUX)
    Blend: AUG-CC-PVTZ-JKFIT + DEF2-UNIVERSAL-JKFIT

    Orbital Energies [Eh]
    ---------------------

    Doubly Occupied:

       1A    -20.552135     2A    -20.545051     3A    -20.535208
       4A    -20.528650     5A    -20.520211     6A     -1.357243
       7A     -1.339630     8A     -1.332903     9A     -1.329565
      10A     -1.296862    11A     -0.715925    12A     -0.714104
      13A     -0.703098    14A     -0.697989    15A     -0.679372
      16A     -0.581968    17A     -0.567417    18A     -0.551534
      19A     -0.545447    20A     -0.518699    21A     -0.505165
      22A     -0.486569    23A     -0.482058    24A     -0.476696
      25A     -0.460189

  @DF-RHF Final Energy:  -380.27829884731352

   => Energetics <=

    Nuclear Repulsion Energy =            186.4294712510122451
    One-Electron Energy =                -897.3681563902512153
    Two-Electron Energy =                 330.6603862919254198
    Total Energy =                       -380.2782988473135219
 Dipole X            :         -5.3224594            4.6254411           -0.6970183
 Dipole Y            :        -18.3611401           18.5860895            0.2249494
 Dipole Z            :        -10.7203638           12.4352558            1.7148921
 Magnitude           :                                                    1.8647497

    SAPT Results
  --------------------------------------------------------------------------------------------------------
    Electrostatics               -132.12172638 [mEh]     -82.90763499 [kcal/mol]    -346.88554481 [kJ/mol]
      Elst10,r                   -138.61725512 [mEh]     -86.98364082 [kcal/mol]    -363.93955318 [kJ/mol]
      Elst12,r                      6.49552874 [mEh]       4.07600582 [kcal/mol]      17.05400837 [kJ/mol]

    Exchange                       38.54075039 [mEh]      24.18468600 [kcal/mol]     101.18872622 [kJ/mol]
      Exch10                       34.41672829 [mEh]      21.59682306 [kcal/mol]      90.36110768 [kJ/mol]
      Exch10(S^2)                  34.37001529 [mEh]      21.56751021 [kcal/mol]      90.23846272 [kJ/mol]
      Exch11(S^2)                  -0.73273222 [mEh]      -0.45979641 [kcal/mol]      -1.92378818 [kJ/mol]
      Exch12(S^2)                   4.85675432 [mEh]       3.04765935 [kcal/mol]      12.75140672 [kJ/mol]

    Induction                     -38.13749323 [mEh]     -23.93163831 [kcal/mol]    -100.12997469 [kJ/mol]
      Ind20,r                     -66.24939985 [mEh]     -41.57212604 [kcal/mol]    -173.93777535 [kJ/mol]
      Ind22                        -9.98545062 [mEh]      -6.26596487 [kcal/mol]     -26.21679700 [kJ/mol]
      Exch-Ind20,r                 31.05014925 [mEh]      19.48426281 [kcal/mol]      81.52215561 [kJ/mol]
      Exch-Ind22                    4.68003835 [mEh]       2.93676840 [kcal/mol]      12.28743900 [kJ/mol]
      delta HF,r (2)                2.36716965 [mEh]       1.48542138 [kcal/mol]       6.21500305 [kJ/mol]

    Dispersion                     -3.08906922 [mEh]      -1.93842020 [kcal/mol]      -8.11035011 [kJ/mol]
      Disp20                       -3.07182024 [mEh]      -1.92759630 [kcal/mol]      -8.06506294 [kJ/mol]
      Disp21                       -0.10159673 [mEh]      -0.06375291 [kcal/mol]      -0.26674217 [kJ/mol]
      Disp22 (SDQ)                 -0.19813744 [mEh]      -0.12433312 [kcal/mol]      -0.52020978 [kJ/mol]
      Disp22 (T)                   -0.26071905 [mEh]      -0.16360368 [kcal/mol]      -0.68451778 [kJ/mol]
      Est. Disp22 (T)              -0.30031851 [mEh]      -0.18845271 [kcal/mol]      -0.78848615 [kJ/mol]
      Exch-Disp20                   0.58280371 [mEh]       0.36571485 [kcal/mol]       1.53015093 [kJ/mol]

  Total HF                       -137.03260779 [mEh]     -85.98925961 [kcal/mol]    -359.77906219 [kJ/mol]
  Total SAPT0                    -139.52162433 [mEh]     -87.55114106 [kcal/mol]    -366.31397420 [kJ/mol]
  Total SAPT2                    -134.20748575 [mEh]     -84.21646876 [kcal/mol]    -352.36170529 [kJ/mol]
  Total SAPT2+                   -134.80753843 [mEh]     -84.59300750 [kcal/mol]    -353.93714339 [kJ/mol]

  Special recipe for scaled SAPT0 (see Manual):
    Electrostatics sSAPT0        -138.61725512 [mEh]     -86.98364082 [kcal/mol]    -363.93955318 [kJ/mol]
    Exchange sSAPT0                34.41672829 [mEh]      21.59682306 [kcal/mol]      90.36110768 [kJ/mol]
    Induction sSAPT0              -32.70530612 [mEh]     -20.52288943 [kcal/mol]     -85.86776939 [kJ/mol]
    Dispersion sSAPT0              -2.48663700 [mEh]      -1.56038828 [kcal/mol]      -6.52866455 [kJ/mol]
  Total sSAPT0                   -139.39246995 [mEh]     -87.47009547 [kcal/mol]    -365.97487944 [kJ/mol]
  --------------------------------------------------------------------------------------------------------

*** Psi4 exiting successfully. Buy a developer a beer!
