                               Psi4 1.9 release

  ==> Input File <==

--------------------------------------------------------------------------
MEMORY 60 GB

molecule dimer {
1 1
Na     0.000000     0.000000     0.000000
--
0 1
O      0.327213    -1.859611     1.348713
H      0.542964    -2.554233     0.688897
H     -0.548316    -2.057300     1.663678
O      1.960777     1.106108    -0.764745
H      1.831324     2.060066    -0.784795
H      2.497879     1.060595    -1.621372
O     -0.358398    -1.218556    -1.863096
H      0.174529    -1.439270    -2.616413
H     -0.633326    -2.005493    -1.343861
O     -1.731597     1.753884    -0.356645
H     -1.112098     2.484718    -0.459952
H     -1.915209     1.784048     0.600745
O      0.225207     1.568908     1.853126
H      0.455797     0.843306     2.428642
H      0.938072     2.204615     1.866753

units ang
no_reorient
no_com
symmetry c1
}

set {
basis        aug-cc-pVTZ
scf_type     df
}

energy("sapt2+")
--------------------------------------------------------------------------

  //              Dimer HF             //
    Molecular point group: c1
  Charge       = 1
  Multiplicity = 1
  Basis Set: AUG-CC-PVTZ
    Blend: AUG-CC-PVTZ
  Basis Set: (AUG-CC-PVTZ AUX)
    Blend: AUG-CC-PVTZ-JKFIT + DEF2-UNIVERSAL-JKFIT
  @DF-RHF Final Energy:  -542.07056518604259
    Total Energy =                       -542.0705651860425860
 Dipole X            :         -9.5391656           10.6150301            1.0758645
 Dipole Y            :        -25.1487138           24.9196597           -0.2290542
 Dipole Z            :         -4.0730474            4.0839741            0.0109266
 Magnitude           :                                                    1.1000316
  //            Monomer A HF           //
    Molecular point group: c1
  Multiplicity = 1
  Basis Set: AUG-CC-PVTZ
    Blend: AUG-CC-PVTZ
  Basis Set: (AUG-CC-PVTZ AUX)
    Blend: AUG-CC-PVTZ-JKFIT + DEF2-UNIVERSAL-JKFIT
  @DF-RHF Final Energy:  -161.67609309999071
    Total Energy =                       -161.6760930999907373
  //            Monomer B HF           //
    Molecular point group: c1

    Geometry (in Angstrom), charge = 0, multiplicity = 1:

       Center              X                  Y                   Z               Mass
    ------------   -----------------  -----------------  -----------------  -----------------
      Gh(NA)          0.000000000000     0.000000000000     0.000000000000    22.989769282000
         O            0.327213000000    -1.859611000000     1.348713000000    15.994914619570
         H            0.542964000000    -2.554233000000     0.688897000000     1.007825032230
         H           -0.548316000000    -2.057300000000     1.663678000000     1.007825032230
         O            1.960777000000     1.106108000000    -0.764745000000    15.994914619570
         H            1.831324000000     2.060066000000    -0.784795000000     1.007825032230
         H            2.497879000000     1.060595000000    -1.621372000000     1.007825032230
         O           -0.358398000000    -1.218556000000    -1.863096000000    15.994914619570
         H            0.174529000000    -1.439270000000    -2.616413000000     1.007825032230
         H           -0.633326000000    -2.005493000000    -1.343861000000     1.007825032230
         O           -1.731597000000     1.753884000000    -0.356645000000    15.994914619570
         H           -1.112098000000     2.484718000000    -0.459952000000     1.007825032230
         H           -1.915209000000     1.784048000000     0.600745000000     1.007825032230
         O            0.225207000000     1.568908000000     1.853126000000    15.994914619570
         H            0.455797000000     0.843306000000     2.428642000000     1.007825032230
         H            0.938072000000     2.204615000000     1.866753000000     1.007825032230

  Charge       = 0
  Multiplicity = 1
  Basis Set: AUG-CC-PVTZ
    Blend: AUG-CC-PVTZ
  Basis Set: (AUG-CC-PVTZ AUX)
    Blend: AUG-CC-PVTZ-JKFIT + DEF2-UNIVERSAL-JKFIT

    Orbital Energies [Eh]
    ---------------------

    Doubly Occupied:

       1A    -20.560368     2A    -20.558461     3A    -20.546498
       4A    -20.541799     5A    -20.523558     6A     -1.340984
       7A     -1.335736     8A     -1.327440     9A     -1.321196
      10A     -1.303404    11A     -0.712458    12A     -0.709704
      13A     -0.704556    14A     -0.667742    15A     -0.661173
      16A     -0.577430    17A     -0.572860    18A     -0.570665
      19A     -0.543045    20A     -0.535086    21A     -0.503619
      22A     -0.492758    23A     -0.491882    24A     -0.480410
      25A     -0.461631

  @DF-RHF Final Energy:  -380.27652869345047

   => Energetics <=

    Nuclear Repulsion Energy =            187.8183990571288575
    One-Electron Energy =                -900.1009231329871909
    Two-Electron Energy =                 332.0059953824078320
    Total Energy =                       -380.2765286934504729
 Dipole X            :         -9.6487539           10.6150301            0.9662761
 Dipole Y            :        -25.2477620           24.9196597           -0.3281024
 Dipole Z            :         -4.0315979            4.0839741            0.0523761
 Magnitude           :                                                    1.0218043

    SAPT Results
  --------------------------------------------------------------------------------------------------------
    Electrostatics               -115.90381957 [mEh]     -72.73074483 [kcal/mol]    -304.30543637 [kJ/mol]
      Elst10,r                   -120.60413512 [mEh]     -75.68023736 [kcal/mol]    -316.64611313 [kJ/mol]
      Elst12,r                      4.70031555 [mEh]       2.94949253 [kcal/mol]      12.34067676 [kJ/mol]

    Exchange                       40.94035642 [mEh]      25.69046151 [kcal/mol]     107.48889096 [kJ/mol]
      Exch10                       36.17468808 [mEh]      22.69995948 [kcal/mol]      94.97663047 [kJ/mol]
      Exch10(S^2)                  36.13130044 [mEh]      22.67273333 [kcal/mol]      94.86271624 [kJ/mol]
      Exch11(S^2)                  -0.81884242 [mEh]      -0.51383138 [kcal/mol]      -2.14987048 [kJ/mol]
      Exch12(S^2)                   5.58451076 [mEh]       3.50433341 [kcal/mol]      14.66213098 [kJ/mol]

    Induction                     -39.34110854 [mEh]     -24.68691832 [kcal/mol]    -103.29006625 [kJ/mol]
      Ind20,r                     -69.24022471 [mEh]     -43.44889697 [kcal/mol]    -181.79018494 [kJ/mol]
      Ind22                       -11.23316159 [mEh]      -7.04891532 [kcal/mol]     -29.49266169 [kJ/mol]
      Exch-Ind20,r                 33.32210221 [mEh]      20.90993482 [kcal/mol]      87.48716729 [kJ/mol]
      Exch-Ind22                    5.40599861 [mEh]       3.39231534 [kcal/mol]      14.19344740 [kJ/mol]
      delta HF,r (2)                2.40417695 [mEh]       1.50864381 [kcal/mol]       6.31216570 [kJ/mol]

    Dispersion                     -3.28972923 [mEh]      -2.06433626 [kcal/mol]      -8.63718291 [kJ/mol]
      Disp20                       -3.27426672 [mEh]      -2.05463339 [kcal/mol]      -8.59658608 [kJ/mol]
      Disp21                       -0.10452513 [mEh]      -0.06559051 [kcal/mol]      -0.27443069 [kJ/mol]
      Disp22 (SDQ)                 -0.21473841 [mEh]      -0.13475039 [kcal/mol]      -0.56379563 [kJ/mol]
      Disp22 (T)                   -0.28429235 [mEh]      -0.17839615 [kcal/mol]      -0.74640947 [kJ/mol]
      Est. Disp22 (T)              -0.32506778 [mEh]      -0.20398311 [kcal/mol]      -0.85346534 [kJ/mol]
      Exch-Disp20                   0.62886881 [mEh]       0.39462114 [kcal/mol]       1.65109483 [kJ/mol]

  Total HF                       -117.94339260 [mEh]     -74.01059623 [kcal/mol]    -309.66033461 [kJ/mol]
  Total SAPT0                    -120.58879051 [mEh]     -75.67060848 [kcal/mol]    -316.60582587 [kJ/mol]
  Total SAPT2                    -116.94996961 [mEh]     -73.38721389 [kcal/mol]    -307.05210291 [kJ/mol]
  Total SAPT2+                   -117.59430093 [mEh]     -73.79153790 [kcal/mol]    -308.74379456 [kJ/mol]

  Special recipe for scaled SAPT0 (see Manual):
    Electrostatics sSAPT0        -120.60413512 [mEh]     -75.68023736 [kcal/mol]    -316.64611313 [kJ/mol]
    Exchange sSAPT0                36.17468808 [mEh]      22.69995948 [kcal/mol]      94.97663047 [kJ/mol]
    Induction sSAPT0              -33.39375857 [mEh]     -20.95489986 [kcal/mol]     -87.67530104 [kJ/mol]
    Dispersion sSAPT0              -2.64312969 [mEh]      -1.65858892 [kcal/mol]      -6.93953604 [kJ/mol]
  Total sSAPT0                   -120.46633529 [mEh]     -75.59376667 [kcal/mol]    -316.28431974 [kJ/mol]
  --------------------------------------------------------------------------------------------------------

*** Psi4 exiting successfully. Buy a developer a beer!
