                               Psi4 1.9 release

  ==> Input File <==

--------------------------------------------------------------------------
MEMORY 60 GB

molecule dimer {
1 1
Na     0.000000     0.000000     0.000000
--
0 1
O     -0.034535     1.231489    -2.218136
H      0.606959     1.824112    -2.604967
H     -0.908760     1.375753    -2.636306
O      2.509633    -0.358357    -0.458430
H      2.814224    -0.209112     0.444792
H      2.813634     0.361272    -1.001100
O     -2.323793     0.459139     0.520834
H     -3.041218     0.076369     0.031045
H     -2.786487     1.059008     1.202974
O     -0.225495    -2.522497     0.781078
H     -0.490119    -2.643515     1.700931
H      0.498305    -3.103075     0.692877
O      0.964521     0.894478     1.841733
H      1.926174     0.986879     2.103443
H      0.445700     0.435486     2.501790

units ang
no_reorient
no_com
symmetry c1
}

set {
basis        aug-cc-pVTZ
scf_type     df
}

energy("sapt2+")
--------------------------------------------------------------------------

  //              Dimer HF             //
    Molecular point group: c1
  Charge       = 1
  Multiplicity = 1
  Basis Set: AUG-CC-PVTZ
    Blend: AUG-CC-PVTZ
  Basis Set: (AUG-CC-PVTZ AUX)
    Blend: AUG-CC-PVTZ-JKFIT + DEF2-UNIVERSAL-JKFIT
  @DF-RHF Final Energy:  -542.08490875364726
    Total Energy =                       -542.0849087536471416
 Dipole X            :        -16.9594533           17.0095382            0.0500850
 Dipole Y            :          4.6986543           -4.1627019            0.5359523
 Dipole Z            :        -10.6247141           11.6635994            1.0388853
 Magnitude           :                                                    1.1700582
  //            Monomer A HF           //
    Molecular point group: c1
  Multiplicity = 1
  Basis Set: AUG-CC-PVTZ
    Blend: AUG-CC-PVTZ
  Basis Set: (AUG-CC-PVTZ AUX)
    Blend: AUG-CC-PVTZ-JKFIT + DEF2-UNIVERSAL-JKFIT
  @DF-RHF Final Energy:  -161.67608706518547
    Total Energy =                       -161.6760870651854702
  //            Monomer B HF           //
    Molecular point group: c1

    Geometry (in Angstrom), charge = 0, multiplicity = 1:

       Center              X                  Y                   Z               Mass
    ------------   -----------------  -----------------  -----------------  -----------------
      Gh(NA)          0.000000000000     0.000000000000     0.000000000000    22.989769282000
         O           -0.034535000000     1.231489000000    -2.218136000000    15.994914619570
         H            0.606959000000     1.824112000000    -2.604967000000     1.007825032230
         H           -0.908760000000     1.375753000000    -2.636306000000     1.007825032230
         O            2.509633000000    -0.358357000000    -0.458430000000    15.994914619570
         H            2.814224000000    -0.209112000000     0.444792000000     1.007825032230
         H            2.813634000000     0.361272000000    -1.001100000000     1.007825032230
         O           -2.323793000000     0.459139000000     0.520834000000    15.994914619570
         H           -3.041218000000     0.076369000000     0.031045000000     1.007825032230
         H           -2.786487000000     1.059008000000     1.202974000000     1.007825032230
         O           -0.225495000000    -2.522497000000     0.781078000000    15.994914619570
         H           -0.490119000000    -2.643515000000     1.700931000000     1.007825032230
         H            0.498305000000    -3.103075000000     0.692877000000     1.007825032230
         O            0.964521000000     0.894478000000     1.841733000000    15.994914619570
         H            1.926174000000     0.986879000000     2.103443000000     1.007825032230
         H            0.445700000000     0.435486000000     2.501790000000     1.007825032230

  Charge       = 0
  Multiplicity = 1
  Basis Set: AUG-CC-PVTZ
    Blend: AUG-CC-PVTZ
  Basis Set: (AUG-CC-PVTZ AUX)
    Blend: AUG-CC-PVTZ-JKFIT + DEF2-UNIVERSAL-JKFIT

    Orbital Energies [Eh]
    ---------------------

    Doubly Occupied:

       1A    -20.549437     2A    -20.547762     3A    -20.538994
       4A    -20.538470     5A    -20.532785     6A     -1.332252
       7A     -1.321142     8A     -1.318750     9A     -1.316926
      10A     -1.315965    11A     -0.706001    12A     -0.694454
      13A     -0.692362    14A     -0.689878    15A     -0.679651
      16A     -0.561345    17A     -0.554763    18A     -0.545115
      19A     -0.543115    20A     -0.541132    21A     -0.493140
      22A     -0.485755    23A     -0.481988    24A     -0.478284
      25A     -0.469451

  @DF-RHF Final Energy:  -380.27154580342091

   => Energetics <=

    Nuclear Repulsion Energy =            179.8916355226799624
    One-Electron Energy =                -884.4685214733866587
    Two-Electron Energy =                 324.3053401472857900
    Total Energy =                       -380.2715458034209064
 Dipole X            :        -17.0474182           17.0095382           -0.0378800
 Dipole Y            :          4.6451810           -4.1627019            0.4824791
 Dipole Z            :        -10.7564908           11.6635994            0.9071086
 Magnitude           :                                                    1.0281377

    SAPT Results
  --------------------------------------------------------------------------------------------------------
    Electrostatics               -121.78670768 [mEh]     -76.42231285 [kcal/mol]    -319.75095697 [kJ/mol]
      Elst10,r                   -129.50573438 [mEh]     -81.26607523 [kcal/mol]    -340.01725876 [kJ/mol]
      Elst12,r                      7.71902670 [mEh]       4.84376238 [kcal/mol]      20.26630180 [kJ/mol]

    Exchange                       25.50958591 [mEh]      16.00750683 [kcal/mol]      66.97540858 [kJ/mol]
      Exch10                       22.68312400 [mEh]      14.23387520 [kcal/mol]      59.55453385 [kJ/mol]
      Exch10(S^2)                  22.65544881 [mEh]      14.21650876 [kcal/mol]      59.48187266 [kJ/mol]
      Exch11(S^2)                  -0.43666210 [mEh]      -0.27400960 [kcal/mol]      -1.14645619 [kJ/mol]
      Exch12(S^2)                   3.26312401 [mEh]       2.04764123 [kcal/mol]       8.56733091 [kJ/mol]

    Induction                     -35.07292664 [mEh]     -22.00859374 [kcal/mol]     -92.08395621 [kJ/mol]
      Ind20,r                     -52.41620041 [mEh]     -32.89166234 [kcal/mol]    -137.61871522 [kJ/mol]
      Ind22                        -7.55532861 [mEh]      -4.74104028 [kcal/mol]     -19.83651252 [kJ/mol]
      Exch-Ind20,r                 20.36668720 [mEh]      12.78028917 [kcal/mol]      53.47272988 [kJ/mol]
      Exch-Ind22                    2.93567663 [mEh]       1.84216490 [kcal/mol]       7.70761792 [kJ/mol]
      delta HF,r (2)                1.59623855 [mEh]       1.00165481 [kcal/mol]       4.19092373 [kJ/mol]

    Dispersion                     -2.45761870 [mEh]      -1.54217902 [kcal/mol]      -6.45247702 [kJ/mol]
      Disp20                       -2.36224281 [mEh]      -1.48232974 [kcal/mol]      -6.20206763 [kJ/mol]
      Disp21                       -0.08106630 [mEh]      -0.05086987 [kcal/mol]      -0.21283954 [kJ/mol]
      Disp22 (SDQ)                 -0.14755932 [mEh]      -0.09259487 [kcal/mol]      -0.38741693 [kJ/mol]
      Disp22 (T)                   -0.20319921 [mEh]      -0.12750943 [kcal/mol]      -0.53349945 [kJ/mol]
      Est. Disp22 (T)              -0.23185833 [mEh]      -0.14549330 [kcal/mol]      -0.60874397 [kJ/mol]
      Exch-Disp20                   0.36510805 [mEh]       0.22910876 [kcal/mol]       0.95859106 [kJ/mol]

  Total HF                       -137.27588504 [mEh]     -86.14191838 [kcal/mol]    -360.41778652 [kJ/mol]
  Total SAPT0                    -139.27301979 [mEh]     -87.39513936 [kcal/mol]    -365.66126309 [kJ/mol]
  Total SAPT2                    -133.34718317 [mEh]     -83.67662074 [kcal/mol]    -350.10298117 [kJ/mol]
  Total SAPT2+                   -133.80766712 [mEh]     -83.96557878 [kcal/mol]    -351.31198162 [kJ/mol]

  Special recipe for scaled SAPT0 (see Manual):
    Electrostatics sSAPT0        -129.50573438 [mEh]     -81.26607523 [kcal/mol]    -340.01725876 [kJ/mol]
    Exchange sSAPT0                22.68312400 [mEh]      14.23387520 [kcal/mol]      59.55453385 [kJ/mol]
    Induction sSAPT0              -30.37854553 [mEh]     -19.06282512 [kcal/mol]     -79.75886030 [kJ/mol]
    Dispersion sSAPT0              -1.99579510 [mEh]      -1.25238034 [kcal/mol]      -5.23995932 [kJ/mol]
  Total sSAPT0                   -139.19695101 [mEh]     -87.34740548 [kcal/mol]    -365.46154453 [kJ/mol]
  --------------------------------------------------------------------------------------------------------

*** Psi4 exiting successfully. Buy a developer a beer!
