                               Psi4 1.9 release

  ==> Input File <==

--------------------------------------------------------------------------
MEMORY 60 GB

molecule dimer {
1 1
Na     0.000000     0.000000     0.000000
--
0 1
O      2.200023    -0.188222    -0.286542
H      2.895583     0.458553    -0.239530
H      2.596252    -0.970724    -0.637590
O     -2.027672     0.184032     1.494454
H     -2.514049    -0.102364     0.712930
H     -2.397718     1.017536     1.839885
O     -0.365594    -2.633320     0.181044
H     -1.247852    -2.871394     0.397864
H     -0.040790    -3.230710    -0.525988
O     -0.373167     2.099173    -1.094592
H     -0.625127     2.930081    -0.644687
H     -0.748604     2.251364    -1.958488
O      0.543302     1.414289     1.993847
H      1.399965     1.002046     2.227791
H     -0.019699     1.251749     2.818915

units ang
no_reorient
no_com
symmetry c1
}

set {
basis        aug-cc-pVTZ
scf_type     df
}

energy("sapt2+")
--------------------------------------------------------------------------

  //              Dimer HF             //
    Molecular point group: c1
  Charge       = 1
  Multiplicity = 1
  Basis Set: AUG-CC-PVTZ
    Blend: AUG-CC-PVTZ
  Basis Set: (AUG-CC-PVTZ AUX)
    Blend: AUG-CC-PVTZ-JKFIT + DEF2-UNIVERSAL-JKFIT
  @DF-RHF Final Energy:  -542.08605661963816
    Total Energy =                       -542.0860566196381569
 Dipole X            :          1.3061372           -1.6760038           -0.3698665
 Dipole Y            :        -16.4586404           16.5232985            0.0646581
 Dipole Z            :        -42.4030569           42.1348266           -0.2682303
 Magnitude           :                                                    0.4614427
  //            Monomer A HF           //
    Molecular point group: c1
  Multiplicity = 1
  Basis Set: AUG-CC-PVTZ
    Blend: AUG-CC-PVTZ
  Basis Set: (AUG-CC-PVTZ AUX)
    Blend: AUG-CC-PVTZ-JKFIT + DEF2-UNIVERSAL-JKFIT
  @DF-RHF Final Energy:  -161.67608868536749
    Total Energy =                       -161.6760886853675174
  //            Monomer B HF           //
    Molecular point group: c1

    Geometry (in Angstrom), charge = 0, multiplicity = 1:

       Center              X                  Y                   Z               Mass
    ------------   -----------------  -----------------  -----------------  -----------------
      Gh(NA)          0.000000000000     0.000000000000     0.000000000000    22.989769282000
         O            2.200023000000    -0.188222000000    -0.286542000000    15.994914619570
         H            2.895583000000     0.458553000000    -0.239530000000     1.007825032230
         H            2.596252000000    -0.970724000000    -0.637590000000     1.007825032230
         O           -2.027672000000     0.184032000000     1.494454000000    15.994914619570
         H           -2.514049000000    -0.102364000000     0.712930000000     1.007825032230
         H           -2.397718000000     1.017536000000     1.839885000000     1.007825032230
         O           -0.365594000000    -2.633320000000     0.181044000000    15.994914619570
         H           -1.247852000000    -2.871394000000     0.397864000000     1.007825032230
         H           -0.040790000000    -3.230710000000    -0.525988000000     1.007825032230
         O           -0.373167000000     2.099173000000    -1.094592000000    15.994914619570
         H           -0.625127000000     2.930081000000    -0.644687000000     1.007825032230
         H           -0.748604000000     2.251364000000    -1.958488000000     1.007825032230
         O            0.543302000000     1.414289000000     1.993847000000    15.994914619570
         H            1.399965000000     1.002046000000     2.227791000000     1.007825032230
         H           -0.019699000000     1.251749000000     2.818915000000     1.007825032230

  Charge       = 0
  Multiplicity = 1
  Basis Set: AUG-CC-PVTZ
    Blend: AUG-CC-PVTZ
  Basis Set: (AUG-CC-PVTZ AUX)
    Blend: AUG-CC-PVTZ-JKFIT + DEF2-UNIVERSAL-JKFIT

    Orbital Energies [Eh]
    ---------------------

    Doubly Occupied:

       1A    -20.546055     2A    -20.540021     3A    -20.538751
       4A    -20.534992     5A    -20.530672     6A     -1.329886
       7A     -1.327608     8A     -1.321472     9A     -1.316772
      10A     -1.292814    11A     -0.705739    12A     -0.696891
      13A     -0.696046    14A     -0.673803    15A     -0.652086
      16A     -0.560560    17A     -0.555200    18A     -0.548100
      19A     -0.543898    20A     -0.536542    21A     -0.488783
      22A     -0.486208    23A     -0.479787    24A     -0.476441
      25A     -0.458683

  @DF-RHF Final Energy:  -380.27548572816738

   => Energetics <=

    Nuclear Repulsion Energy =            184.2296159403035460
    One-Electron Energy =                -893.3345733277974432
    Two-Electron Energy =                 328.8294716593264866
    Total Energy =                       -380.2754857281673821
 Dipole X            :          1.2696818           -1.6760038           -0.4063220
 Dipole Y            :        -16.6042637           16.5232985           -0.0809652
 Dipole Z            :        -42.6107480           42.1348266           -0.4759214
 Magnitude           :                                                    0.6309945

    SAPT Results
  --------------------------------------------------------------------------------------------------------
    Electrostatics               -121.18316162 [mEh]     -76.04358198 [kcal/mol]    -318.16634700 [kJ/mol]
      Elst10,r                   -128.80160467 [mEh]     -80.82422717 [kcal/mol]    -338.16856647 [kJ/mol]
      Elst12,r                      7.61844305 [mEh]       4.78064519 [kcal/mol]      20.00221947 [kJ/mol]

    Exchange                       28.60918372 [mEh]      17.95253382 [kcal/mol]      75.11340151 [kJ/mol]
      Exch10                       25.51777228 [mEh]      16.01264385 [kcal/mol]      66.99690189 [kJ/mol]
      Exch10(S^2)                  25.48303551 [mEh]      15.99084620 [kcal/mol]      66.90570051 [kJ/mol]
      Exch11(S^2)                  -0.49536943 [mEh]      -0.31084901 [kcal/mol]      -1.30059225 [kJ/mol]
      Exch12(S^2)                   3.58678087 [mEh]       2.25073897 [kcal/mol]       9.41709187 [kJ/mol]

    Induction                     -35.98832760 [mEh]     -22.58301652 [kcal/mol]     -94.48734111 [kJ/mol]
      Ind20,r                     -55.46212490 [mEh]     -34.80300881 [kcal/mol]    -145.61578887 [kJ/mol]
      Ind22                        -8.07625877 [mEh]      -5.06792889 [kcal/mol]     -21.20421448 [kJ/mol]
      Exch-Ind20,r                 22.56805494 [mEh]      14.16166828 [kcal/mol]      59.25242008 [kJ/mol]
      Exch-Ind22                    3.28630488 [mEh]       2.06218745 [kcal/mol]       8.62819227 [kJ/mol]
      delta HF,r (2)                1.69569625 [mEh]       1.06406546 [kcal/mol]       4.45204990 [kJ/mol]

    Dispersion                     -2.67279473 [mEh]      -1.67720401 [kcal/mol]      -7.01742159 [kJ/mol]
      Disp20                       -2.59742173 [mEh]      -1.62990675 [kcal/mol]      -6.81952982 [kJ/mol]
      Disp21                       -0.07775219 [mEh]      -0.04879024 [kcal/mol]      -0.20413836 [kJ/mol]
      Disp22 (SDQ)                 -0.16541340 [mEh]      -0.10379848 [kcal/mol]      -0.43429283 [kJ/mol]
      Disp22 (T)                   -0.22176936 [mEh]      -0.13916238 [kcal/mol]      -0.58225538 [kJ/mol]
      Est. Disp22 (T)              -0.25392050 [mEh]      -0.15933752 [kcal/mol]      -0.66666818 [kJ/mol]
      Exch-Disp20                   0.42171310 [mEh]       0.26462897 [kcal/mol]       1.10720760 [kJ/mol]

  Total HF                       -134.48220610 [mEh]     -84.38885838 [kcal/mol]    -353.08298348 [kJ/mol]
  Total SAPT0                    -136.65791473 [mEh]     -85.75413616 [kcal/mol]    -358.79530570 [kJ/mol]
  Total SAPT2                    -130.73801414 [mEh]     -82.03934245 [kcal/mol]    -343.25260882 [kJ/mol]
  Total SAPT2+                   -131.23510023 [mEh]     -82.35126869 [kcal/mol]    -344.55770819 [kJ/mol]

  Special recipe for scaled SAPT0 (see Manual):
    Electrostatics sSAPT0        -128.80160467 [mEh]     -80.82422717 [kcal/mol]    -338.16856647 [kJ/mol]
    Exchange sSAPT0                25.51777228 [mEh]      16.01264385 [kcal/mol]      66.99690189 [kJ/mol]
    Induction sSAPT0              -31.10595806 [mEh]     -19.51928338 [kcal/mol]     -81.66868164 [kJ/mol]
    Dispersion sSAPT0              -2.17398173 [mEh]      -1.36419413 [kcal/mol]      -5.70778823 [kJ/mol]
  Total sSAPT0                   -136.56377218 [mEh]     -85.69506082 [kcal/mol]    -358.54813447 [kJ/mol]
  --------------------------------------------------------------------------------------------------------

*** Psi4 exiting successfully. Buy a developer a beer!
