                               Psi4 1.9 release

  ==> Input File <==

--------------------------------------------------------------------------
MEMORY 60 GB

molecule dimer {
1 1
Na     0.000000     0.000000     0.000000
--
0 1
O      0.974400    -1.500805    -1.578092
H      0.289260    -1.851647    -2.169700
H      1.709261    -1.238602    -2.153686
O     -1.797096     0.831159    -1.319080
H     -1.656469     1.372669    -2.125826
H     -2.720728     0.976342    -1.054127
O      2.455762     0.636301     0.302092
H      2.886737     1.301869     0.827337
H      3.173762     0.185035    -0.192646
O      0.452548     1.189970     2.197550
H      1.237469     0.673737     2.428768
H     -0.021114     1.508820     3.014876

units ang
no_reorient
no_com
symmetry c1
}

set {
basis        aug-cc-pVTZ
scf_type     df
}

energy("sapt2+")
--------------------------------------------------------------------------

  //              Dimer HF             //
    Molecular point group: c1
  Charge       = 1
  Multiplicity = 1
  Basis Set: AUG-CC-PVTZ
    Blend: AUG-CC-PVTZ
  Basis Set: (AUG-CC-PVTZ AUX)
    Blend: AUG-CC-PVTZ-JKFIT + DEF2-UNIVERSAL-JKFIT
  @DF-RHF Final Energy:  -466.01969321973252
    Total Energy =                       -466.0196932197325168
 Dipole X            :        -40.1753216           40.7861290            0.6108074
 Dipole Y            :        -22.4816165           23.0191753            0.5375588
 Dipole Z            :          8.1779963           -8.7026499           -0.5246536
 Magnitude           :                                                    0.9681511
  //            Monomer A HF           //
    Molecular point group: c1
  Multiplicity = 1
  Basis Set: AUG-CC-PVTZ
    Blend: AUG-CC-PVTZ
  Basis Set: (AUG-CC-PVTZ AUX)
    Blend: AUG-CC-PVTZ-JKFIT + DEF2-UNIVERSAL-JKFIT
  @DF-RHF Final Energy:  -161.67607922394015
    Total Energy =                       -161.6760792239401212
  //            Monomer B HF           //
    Molecular point group: c1

    Geometry (in Angstrom), charge = 0, multiplicity = 1:

       Center              X                  Y                   Z               Mass
    ------------   -----------------  -----------------  -----------------  -----------------
      Gh(NA)          0.000000000000     0.000000000000     0.000000000000    22.989769282000
         O            0.974400000000    -1.500805000000    -1.578092000000    15.994914619570
         H            0.289260000000    -1.851647000000    -2.169700000000     1.007825032230
         H            1.709261000000    -1.238602000000    -2.153686000000     1.007825032230
         O           -1.797096000000     0.831159000000    -1.319080000000    15.994914619570
         H           -1.656469000000     1.372669000000    -2.125826000000     1.007825032230
         H           -2.720728000000     0.976342000000    -1.054127000000     1.007825032230
         O            2.455762000000     0.636301000000     0.302092000000    15.994914619570
         H            2.886737000000     1.301869000000     0.827337000000     1.007825032230
         H            3.173762000000     0.185035000000    -0.192646000000     1.007825032230
         O            0.452548000000     1.189970000000     2.197550000000    15.994914619570
         H            1.237469000000     0.673737000000     2.428768000000     1.007825032230
         H           -0.021114000000     1.508820000000     3.014876000000     1.007825032230

  Charge       = 0
  Multiplicity = 1
  Basis Set: AUG-CC-PVTZ
    Blend: AUG-CC-PVTZ
  Basis Set: (AUG-CC-PVTZ AUX)
    Blend: AUG-CC-PVTZ-JKFIT + DEF2-UNIVERSAL-JKFIT

    Orbital Energies [Eh]
    ---------------------

    Doubly Occupied:

       1A    -20.551114     2A    -20.549205     3A    -20.545446
       4A    -20.540502     5A     -1.332431     6A     -1.322801
       7A     -1.321708     8A     -1.308688     9A     -0.704740
      10A     -0.690169    11A     -0.689374    12A     -0.682640
      13A     -0.564729    14A     -0.555468    15A     -0.553312
      16A     -0.535703    17A     -0.492483    18A     -0.487574
      19A     -0.483624    20A     -0.478352

  @DF-RHF Final Energy:  -304.22291092437473

   => Energetics <=

    Nuclear Repulsion Energy =            118.3422428089257892
    One-Electron Energy =                -656.3501793966612468
    Two-Electron Energy =                 233.7850256633607273
    Total Energy =                       -304.2229109243747303
 Dipole X            :        -40.3653770           40.7861290            0.4207520
 Dipole Y            :        -22.6219506           23.0191753            0.3972247
 Dipole Z            :          8.2793284           -8.7026499           -0.4233215
 Magnitude           :                                                    0.7169525

    SAPT Results
  --------------------------------------------------------------------------------------------------------
    Electrostatics               -106.17561720 [mEh]     -66.62620568 [kcal/mol]    -278.76404455 [kJ/mol]
      Elst10,r                   -113.23167225 [mEh]     -71.05394707 [kcal/mol]    -297.28971453 [kJ/mol]
      Elst12,r                      7.05605505 [mEh]       4.42774139 [kcal/mol]      18.52566999 [kJ/mol]

    Exchange                       20.45681972 [mEh]      12.83684818 [kcal/mol]      53.70937278 [kJ/mol]
      Exch10                       18.20727967 [mEh]      11.42524048 [kcal/mol]      47.80320618 [kJ/mol]
      Exch10(S^2)                  18.19107543 [mEh]      11.41507217 [kcal/mol]      47.76066196 [kJ/mol]
      Exch11(S^2)                  -0.29321901 [mEh]      -0.18399771 [kcal/mol]      -0.76984640 [kJ/mol]
      Exch12(S^2)                   2.54275906 [mEh]       1.59560540 [kcal/mol]       6.67601301 [kJ/mol]

    Induction                     -29.40529083 [mEh]     -18.45209857 [kcal/mol]     -77.20358043 [kJ/mol]
      Ind20,r                     -44.06126812 [mEh]     -27.64886317 [kcal/mol]    -115.68284352 [kJ/mol]
      Ind22                        -6.04274285 [mEh]      -3.79187839 [kcal/mol]     -15.86521917 [kJ/mol]
      Exch-Ind20,r                 16.88830143 [mEh]      10.59756915 [kcal/mol]      44.34022930 [kJ/mol]
      Exch-Ind22                    2.31613086 [mEh]       1.45339406 [kcal/mol]       6.08100073 [kJ/mol]
      delta HF,r (2)                1.49428786 [mEh]       0.93767979 [kcal/mol]       3.92325223 [kJ/mol]

    Dispersion                     -1.86913768 [mEh]      -1.17290160 [kcal/mol]      -4.90742030 [kJ/mol]
      Disp20                       -1.78962555 [mEh]      -1.12300699 [kcal/mol]      -4.69866124 [kJ/mol]
      Disp21                       -0.06725237 [mEh]      -0.04220150 [kcal/mol]      -0.17657107 [kJ/mol]
      Disp22 (SDQ)                 -0.10875745 [mEh]      -0.06824633 [kcal/mol]      -0.28554266 [kJ/mol]
      Disp22 (T)                   -0.14733049 [mEh]      -0.09245128 [kcal/mol]      -0.38681616 [kJ/mol]
      Est. Disp22 (T)              -0.17225619 [mEh]      -0.10809239 [kcal/mol]      -0.45225855 [kJ/mol]
      Exch-Disp20                   0.26875388 [mEh]       0.16864561 [kcal/mol]       0.70561323 [kJ/mol]

  Total HF                       -120.70307142 [mEh]     -75.74232083 [kcal/mol]    -316.90587035 [kJ/mol]
  Total SAPT0                    -122.22394309 [mEh]     -76.69668221 [kcal/mol]    -320.89891836 [kJ/mol]
  Total SAPT2                    -116.64495997 [mEh]     -73.19581745 [kcal/mol]    -306.25130021 [kJ/mol]
  Total SAPT2+                   -116.99322598 [mEh]     -73.41435767 [kcal/mol]    -307.16567249 [kJ/mol]

  Special recipe for scaled SAPT0 (see Manual):
    Electrostatics sSAPT0        -113.23167225 [mEh]     -71.05394707 [kcal/mol]    -297.28971453 [kJ/mol]
    Exchange sSAPT0                18.20727967 [mEh]      11.42524048 [kcal/mol]      47.80320618 [kJ/mol]
    Induction sSAPT0              -25.63350737 [mEh]     -16.08526872 [kcal/mol]     -67.30076432 [kJ/mol]
    Dispersion sSAPT0              -1.52015283 [mEh]      -0.95391030 [kcal/mol]      -3.99116070 [kJ/mol]
  Total sSAPT0                   -122.17805278 [mEh]     -76.66788561 [kcal/mol]    -320.77843338 [kJ/mol]
  --------------------------------------------------------------------------------------------------------

*** Psi4 exiting successfully. Buy a developer a beer!
