                               Psi4 1.9 release

  ==> Input File <==

--------------------------------------------------------------------------
MEMORY 60 GB

molecule dimer {
1 1
Na     0.000000     0.000000     0.000000
--
0 1
O     -2.057757    -0.567435    -1.344412
H     -2.384068    -1.418540    -1.257705
H     -2.568328    -0.071263    -1.951173
O      0.120681    -1.848179     1.208782
H     -0.814575    -2.083590     1.439398
H      0.484907    -2.595566     0.683991
O      0.592422    -1.139151    -2.248474
H     -0.326986    -1.097038    -2.041671
H      0.797950    -2.100848    -2.177029
O      2.158692     0.499247     0.293467
H      2.128230     1.387558     0.586444
H      2.800191     0.400597    -0.407694
O     -1.819980     0.746347     1.326387
H     -2.366039    -0.038270     1.450016
H     -1.335759     0.819436     2.149391

units ang
no_reorient
no_com
symmetry c1
}

set {
basis        aug-cc-pVTZ
scf_type     df
}

energy("sapt2+")
--------------------------------------------------------------------------

  //              Dimer HF             //
    Molecular point group: c1
  Charge       = 1
  Multiplicity = 1
  Basis Set: AUG-CC-PVTZ
    Blend: AUG-CC-PVTZ
  Basis Set: (AUG-CC-PVTZ AUX)
    Blend: AUG-CC-PVTZ-JKFIT + DEF2-UNIVERSAL-JKFIT
  @DF-RHF Final Energy:  -542.07037067844726
    Total Energy =                       -542.0703706784472615
 Dipole X            :         20.7642508          -21.9813189           -1.2170680
 Dipole Y            :         46.2211166          -47.7550648           -1.5339482
 Dipole Z            :         14.4084987          -14.4375681           -0.0290694
 Magnitude           :                                                    1.9583403
  //            Monomer A HF           //
    Molecular point group: c1
  Multiplicity = 1
  Basis Set: AUG-CC-PVTZ
    Blend: AUG-CC-PVTZ
  Basis Set: (AUG-CC-PVTZ AUX)
    Blend: AUG-CC-PVTZ-JKFIT + DEF2-UNIVERSAL-JKFIT
  @DF-RHF Final Energy:  -161.67609312707623
    Total Energy =                       -161.6760931270762285
  //            Monomer B HF           //
    Molecular point group: c1

    Geometry (in Angstrom), charge = 0, multiplicity = 1:

       Center              X                  Y                   Z               Mass
    ------------   -----------------  -----------------  -----------------  -----------------
      Gh(NA)          0.000000000000     0.000000000000     0.000000000000    22.989769282000
         O           -2.057757000000    -0.567435000000    -1.344412000000    15.994914619570
         H           -2.384068000000    -1.418540000000    -1.257705000000     1.007825032230
         H           -2.568328000000    -0.071263000000    -1.951173000000     1.007825032230
         O            0.120681000000    -1.848179000000     1.208782000000    15.994914619570
         H           -0.814575000000    -2.083590000000     1.439398000000     1.007825032230
         H            0.484907000000    -2.595566000000     0.683991000000     1.007825032230
         O            0.592422000000    -1.139151000000    -2.248474000000    15.994914619570
         H           -0.326986000000    -1.097038000000    -2.041671000000     1.007825032230
         H            0.797950000000    -2.100848000000    -2.177029000000     1.007825032230
         O            2.158692000000     0.499247000000     0.293467000000    15.994914619570
         H            2.128230000000     1.387558000000     0.586444000000     1.007825032230
         H            2.800191000000     0.400597000000    -0.407694000000     1.007825032230
         O           -1.819980000000     0.746347000000     1.326387000000    15.994914619570
         H           -2.366039000000    -0.038270000000     1.450016000000     1.007825032230
         H           -1.335759000000     0.819436000000     2.149391000000     1.007825032230

  Charge       = 0
  Multiplicity = 1
  Basis Set: AUG-CC-PVTZ
    Blend: AUG-CC-PVTZ
  Basis Set: (AUG-CC-PVTZ AUX)
    Blend: AUG-CC-PVTZ-JKFIT + DEF2-UNIVERSAL-JKFIT

    Orbital Energies [Eh]
    ---------------------

    Doubly Occupied:

       1A    -20.569580     2A    -20.555210     3A    -20.544423
       4A    -20.528783     5A    -20.525574     6A     -1.381020
       7A     -1.329432     8A     -1.320981     9A     -1.318883
      10A     -1.313613    11A     -0.761905    12A     -0.699551
      13A     -0.693739    14A     -0.689699    15A     -0.682034
      16A     -0.590090    17A     -0.562512    18A     -0.558942
      19A     -0.553310    20A     -0.535072    21A     -0.518291
      22A     -0.494114    23A     -0.482500    24A     -0.475328
      25A     -0.467340

  @DF-RHF Final Energy:  -380.28165284642444

   => Energetics <=

    Nuclear Repulsion Energy =            192.2930245810079555
    One-Electron Energy =                -908.8455012074649630
    Two-Electron Energy =                 336.2708237800326287
    Total Energy =                       -380.2816528464244357
 Dipole X            :         20.8365622          -21.9813189           -1.1447567
 Dipole Y            :         46.5400236          -47.7550648           -1.2150413
 Dipole Z            :         14.4315589          -14.4375681           -0.0060091
 Magnitude           :                                                    1.6693799

    SAPT Results
  --------------------------------------------------------------------------------------------------------
    Electrostatics               -115.62796687 [mEh]     -72.55764464 [kcal/mol]    -303.58118519 [kJ/mol]
      Elst10,r                   -119.83655744 [mEh]     -75.19857510 [kcal/mol]    -314.63083820 [kJ/mol]
      Elst12,r                      4.20859057 [mEh]       2.64093045 [kcal/mol]      11.04965301 [kJ/mol]

    Exchange                       45.21717333 [mEh]      28.37420464 [kcal/mol]     118.71767221 [kJ/mol]
      Exch10                       40.25574167 [mEh]      25.26085927 [kcal/mol]     105.69143519 [kJ/mol]
      Exch10(S^2)                  40.17015119 [mEh]      25.20715044 [kcal/mol]     105.46671742 [kJ/mol]
      Exch11(S^2)                  -0.88990843 [mEh]      -0.55842597 [kcal/mol]      -2.33645426 [kJ/mol]
      Exch12(S^2)                   5.85134009 [mEh]       3.67177134 [kcal/mol]      15.36269128 [kJ/mol]

    Induction                     -38.73385279 [mEh]     -24.30585958 [kcal/mol]    -101.69571650 [kJ/mol]
      Ind20,r                     -72.77759433 [mEh]     -45.66862992 [kcal/mol]    -191.07754758 [kJ/mol]
      Ind22                       -11.63733117 [mEh]      -7.30253556 [kcal/mol]     -30.55380878 [kJ/mol]
      Exch-Ind20,r                 37.19367415 [mEh]      23.33938289 [kcal/mol]      97.65197802 [kJ/mol]
      Exch-Ind22                    5.94736756 [mEh]       3.73202949 [kcal/mol]      15.61481138 [kJ/mol]
      delta HF,r (2)                2.54003100 [mEh]       1.59389351 [kcal/mol]       6.66885046 [kJ/mol]

    Dispersion                     -3.38814438 [mEh]      -2.12609270 [kcal/mol]      -8.89557185 [kJ/mol]
      Disp20                       -3.41499519 [mEh]      -2.14294184 [kcal/mol]      -8.96606864 [kJ/mol]
      Disp21                       -0.09717605 [mEh]      -0.06097889 [kcal/mol]      -0.25513568 [kJ/mol]
      Disp22 (SDQ)                 -0.22644535 [mEh]      -0.14209660 [kcal/mol]      -0.59453217 [kJ/mol]
      Disp22 (T)                   -0.29874203 [mEh]      -0.18746345 [kcal/mol]      -0.78434709 [kJ/mol]
      Est. Disp22 (T)              -0.34066603 [mEh]      -0.21377116 [kcal/mol]      -0.89441854 [kJ/mol]
      Exch-Disp20                   0.69113824 [mEh]       0.43369579 [kcal/mol]       1.81458319 [kJ/mol]

  Total HF                       -112.62470495 [mEh]     -70.67306934 [kcal/mol]    -295.69612210 [kJ/mol]
  Total SAPT0                    -115.34856190 [mEh]     -72.38231538 [kcal/mol]    -302.84760755 [kJ/mol]
  Total SAPT2                    -111.86850329 [mEh]     -70.19854563 [kcal/mol]    -293.71071493 [kJ/mol]
  Total SAPT2+                   -112.53279072 [mEh]     -70.61539229 [kcal/mol]    -295.45480132 [kJ/mol]

  Special recipe for scaled SAPT0 (see Manual):
    Electrostatics sSAPT0        -119.83655744 [mEh]     -75.19857510 [kcal/mol]    -314.63083820 [kJ/mol]
    Exchange sSAPT0                40.25574167 [mEh]      25.26085927 [kcal/mol]     105.69143519 [kJ/mol]
    Induction sSAPT0              -32.80563675 [mEh]     -20.58584785 [kcal/mol]     -86.13118741 [kJ/mol]
    Dispersion sSAPT0              -2.71942971 [mEh]      -1.70646791 [kcal/mol]      -7.13986173 [kJ/mol]
  Total sSAPT0                   -115.10588223 [mEh]     -72.23003159 [kcal/mol]    -302.21045215 [kJ/mol]
  --------------------------------------------------------------------------------------------------------

*** Psi4 exiting successfully. Buy a developer a beer!
