                               Psi4 1.9 release

  ==> Input File <==

--------------------------------------------------------------------------
MEMORY 60 GB

molecule dimer {
1 1
Na     0.000000     0.000000     0.000000
--
0 1
O     -1.550334     1.816641    -0.647719
H     -1.763595     2.148064    -1.549173
H     -2.345886     1.993166    -0.095342
O      1.776229    -0.620344    -1.543284
H      1.957125    -1.432281    -2.104550
H      2.456253     0.027568    -1.657251
O     -0.110460    -0.599504     2.332443
H     -0.274930    -0.167045     3.165026
H     -0.837619    -1.226720     2.297426
O     -1.487710    -1.471897    -1.190235
H     -2.323235    -1.734375    -0.749536
H     -1.811237    -1.091178    -2.013706

units ang
no_reorient
no_com
symmetry c1
}

set {
basis        aug-cc-pVTZ
scf_type     df
}

energy("sapt2+")
--------------------------------------------------------------------------

  //              Dimer HF             //
    Molecular point group: c1
  Charge       = 1
  Multiplicity = 1
  Basis Set: AUG-CC-PVTZ
    Blend: AUG-CC-PVTZ
  Basis Set: (AUG-CC-PVTZ AUX)
    Blend: AUG-CC-PVTZ-JKFIT + DEF2-UNIVERSAL-JKFIT
  @DF-RHF Final Energy:  -466.01975983830204
    Total Energy =                       -466.0197598383020363
 Dipole X            :         28.5204906          -30.0869419           -1.5664513
 Dipole Y            :         16.1376188          -16.0317429            0.1058759
 Dipole Z            :         20.4571359          -20.9711714           -0.5140355
 Magnitude           :                                                    1.6520327
  //            Monomer A HF           //
    Molecular point group: c1
  Multiplicity = 1
  Basis Set: AUG-CC-PVTZ
    Blend: AUG-CC-PVTZ
  Basis Set: (AUG-CC-PVTZ AUX)
    Blend: AUG-CC-PVTZ-JKFIT + DEF2-UNIVERSAL-JKFIT
  @DF-RHF Final Energy:  -161.67608334924793
    Total Energy =                       -161.6760833492479605
  //            Monomer B HF           //
    Molecular point group: c1

    Geometry (in Angstrom), charge = 0, multiplicity = 1:

       Center              X                  Y                   Z               Mass
    ------------   -----------------  -----------------  -----------------  -----------------
      Gh(NA)          0.000000000000     0.000000000000     0.000000000000    22.989769282000
         O           -1.550334000000     1.816641000000    -0.647719000000    15.994914619570
         H           -1.763595000000     2.148064000000    -1.549173000000     1.007825032230
         H           -2.345886000000     1.993166000000    -0.095342000000     1.007825032230
         O            1.776229000000    -0.620344000000    -1.543284000000    15.994914619570
         H            1.957125000000    -1.432281000000    -2.104550000000     1.007825032230
         H            2.456253000000     0.027568000000    -1.657251000000     1.007825032230
         O           -0.110460000000    -0.599504000000     2.332443000000    15.994914619570
         H           -0.274930000000    -0.167045000000     3.165026000000     1.007825032230
         H           -0.837619000000    -1.226720000000     2.297426000000     1.007825032230
         O           -1.487710000000    -1.471897000000    -1.190235000000    15.994914619570
         H           -2.323235000000    -1.734375000000    -0.749536000000     1.007825032230
         H           -1.811237000000    -1.091178000000    -2.013706000000     1.007825032230

  Charge       = 0
  Multiplicity = 1
  Basis Set: AUG-CC-PVTZ
    Blend: AUG-CC-PVTZ
  Basis Set: (AUG-CC-PVTZ AUX)
    Blend: AUG-CC-PVTZ-JKFIT + DEF2-UNIVERSAL-JKFIT

    Orbital Energies [Eh]
    ---------------------

    Doubly Occupied:

       1A    -20.555135     2A    -20.546830     3A    -20.545383
       4A    -20.538655     5A     -1.332902     6A     -1.324591
       7A     -1.322654     8A     -1.312478     9A     -0.691387
      10A     -0.690635    11A     -0.688658    12A     -0.680871
      13A     -0.566518    14A     -0.562661    15A     -0.558000
      16A     -0.537143    17A     -0.496991    18A     -0.487420
      19A     -0.479374    20A     -0.477913

  @DF-RHF Final Energy:  -304.22136061893082

   => Energetics <=

    Nuclear Repulsion Energy =            115.9824424591505192
    One-Electron Energy =                -651.6152031368781081
    Two-Electron Energy =                 231.4114000587967439
    Total Energy =                       -304.2213606189308166
 Dipole X            :         28.7392993          -30.0869419           -1.3476427
 Dipole Y            :         16.2393416          -16.0317429            0.2075987
 Dipole Z            :         20.5893425          -20.9711714           -0.3818289
 Magnitude           :                                                    1.4159913

    SAPT Results
  --------------------------------------------------------------------------------------------------------
    Electrostatics               -108.87102214 [mEh]     -68.31759781 [kcal/mol]    -285.84082925 [kJ/mol]
      Elst10,r                   -115.80526735 [mEh]     -72.66890238 [kcal/mol]    -304.04668754 [kJ/mol]
      Elst12,r                      6.93424521 [mEh]       4.35130456 [kcal/mol]      18.20585829 [kJ/mol]

    Exchange                       22.63389109 [mEh]      14.20298109 [kcal/mol]      59.42527286 [kJ/mol]
      Exch10                       20.15727402 [mEh]      12.64888041 [kcal/mol]      52.92291564 [kJ/mol]
      Exch10(S^2)                  20.14316052 [mEh]      12.64002406 [kcal/mol]      52.88586067 [kJ/mol]
      Exch11(S^2)                  -0.33391147 [mEh]      -0.20953261 [kcal/mol]      -0.87668444 [kJ/mol]
      Exch12(S^2)                   2.81052854 [mEh]       1.76363328 [kcal/mol]       7.37904166 [kJ/mol]

    Induction                     -30.57392944 [mEh]     -19.18543037 [kcal/mol]     -80.27184068 [kJ/mol]
      Ind20,r                     -46.91673646 [mEh]     -29.44069661 [kcal/mol]    -123.17987461 [kJ/mol]
      Ind22                        -6.46698193 [mEh]      -4.05809243 [kcal/mol]     -16.97905871 [kJ/mol]
      Exch-Ind20,r                 18.57905981 [mEh]      11.65853604 [kcal/mol]      48.77931481 [kJ/mol]
      Exch-Ind22                    2.56092928 [mEh]       1.60700738 [kcal/mol]       6.72371889 [kJ/mol]
      delta HF,r (2)                1.66979986 [mEh]       1.04781523 [kcal/mol]       4.38405894 [kJ/mol]

    Dispersion                     -2.02765472 [mEh]      -1.27237255 [kcal/mol]      -5.32360674 [kJ/mol]
      Disp20                       -1.95217114 [mEh]      -1.22500589 [kcal/mol]      -5.12542463 [kJ/mol]
      Disp21                       -0.07740929 [mEh]      -0.04857506 [kcal/mol]      -0.20323806 [kJ/mol]
      Disp22 (SDQ)                 -0.11519594 [mEh]      -0.07228655 [kcal/mol]      -0.30244691 [kJ/mol]
      Disp22 (T)                   -0.15645297 [mEh]      -0.09817572 [kcal/mol]      -0.41076721 [kJ/mol]
      Est. Disp22 (T)              -0.18557962 [mEh]      -0.11645297 [kcal/mol]      -0.48723922 [kJ/mol]
      Exch-Disp20                   0.30270127 [mEh]       0.18994791 [kcal/mol]       0.79474207 [kJ/mol]

  Total HF                       -122.31587012 [mEh]     -76.75436730 [kcal/mol]    -321.14027277 [kJ/mol]
  Total SAPT0                    -123.96534000 [mEh]     -77.78942527 [kcal/mol]    -325.47095532 [kJ/mol]
  Total SAPT2                    -118.46053037 [mEh]     -74.33510507 [kcal/mol]    -311.01807963 [kJ/mol]
  Total SAPT2+                   -118.83871522 [mEh]     -74.57241965 [kcal/mol]    -312.01100382 [kJ/mol]

  Special recipe for scaled SAPT0 (see Manual):
    Electrostatics sSAPT0        -115.80526735 [mEh]     -72.66890238 [kcal/mol]    -304.04668754 [kJ/mol]
    Exchange sSAPT0                20.15727402 [mEh]      12.64888041 [kcal/mol]      52.92291564 [kJ/mol]
    Induction sSAPT0              -26.62879665 [mEh]     -16.70982217 [kcal/mol]     -69.91389596 [kJ/mol]
    Dispersion sSAPT0              -1.64883316 [mEh]      -1.03465843 [kcal/mol]      -4.32901085 [kJ/mol]
  Total sSAPT0                   -123.92562313 [mEh]     -77.76450256 [kcal/mol]    -325.36667871 [kJ/mol]
  --------------------------------------------------------------------------------------------------------

*** Psi4 exiting successfully. Buy a developer a beer!
