                               Psi4 1.9 release

  ==> Input File <==

--------------------------------------------------------------------------
MEMORY 60 GB

molecule dimer {
1 1
Na     0.000000     0.000000     0.000000
--
0 1
O      1.141551    -0.269713    -2.063354
H      0.581191     0.178954    -2.697423
H      1.852964     0.355336    -1.816107
O     -1.079228    -1.527136     1.353753
H     -0.231296    -1.832250     1.704646
H     -1.535491    -1.112505     2.099170
O      1.382305     1.712080     0.506694
H      2.284929     1.263696     0.506647
H      1.263960     2.214578     1.342307
O     -1.935349     1.087739    -0.470061
H     -2.792958     0.609916    -0.258886
H     -2.113097     1.840844    -1.058981

units ang
no_reorient
no_com
symmetry c1
}

set {
basis        aug-cc-pVTZ
scf_type     df
}

energy("sapt2+")
--------------------------------------------------------------------------

  //              Dimer HF             //
    Molecular point group: c1
  Charge       = 1
  Multiplicity = 1
  Basis Set: AUG-CC-PVTZ
    Blend: AUG-CC-PVTZ
  Basis Set: (AUG-CC-PVTZ AUX)
    Blend: AUG-CC-PVTZ-JKFIT + DEF2-UNIVERSAL-JKFIT
  @DF-RHF Final Energy:  -466.00373493206280
    Total Energy =                       -466.0037349320627982
 Dipole X            :          8.7975888           -8.7221557            0.0754332
 Dipole Y            :        -20.6307515           21.8118407            1.1810891
 Dipole Z            :         11.2728644          -10.5113578            0.7615066
 Magnitude           :                                                    1.4073215
  //            Monomer A HF           //
    Molecular point group: c1
  Multiplicity = 1
  Basis Set: AUG-CC-PVTZ
    Blend: AUG-CC-PVTZ
  Basis Set: (AUG-CC-PVTZ AUX)
    Blend: AUG-CC-PVTZ-JKFIT + DEF2-UNIVERSAL-JKFIT
  @DF-RHF Final Energy:  -161.67608819895628
    Total Energy =                       -161.6760881989562790
  //            Monomer B HF           //
    Molecular point group: c1

    Geometry (in Angstrom), charge = 0, multiplicity = 1:

       Center              X                  Y                   Z               Mass
    ------------   -----------------  -----------------  -----------------  -----------------
      Gh(NA)          0.000000000000     0.000000000000     0.000000000000    22.989769282000
         O            1.141551000000    -0.269713000000    -2.063354000000    15.994914619570
         H            0.581191000000     0.178954000000    -2.697423000000     1.007825032230
         H            1.852964000000     0.355336000000    -1.816107000000     1.007825032230
         O           -1.079228000000    -1.527136000000     1.353753000000    15.994914619570
         H           -0.231296000000    -1.832250000000     1.704646000000     1.007825032230
         H           -1.535491000000    -1.112505000000     2.099170000000     1.007825032230
         O            1.382305000000     1.712080000000     0.506694000000    15.994914619570
         H            2.284929000000     1.263696000000     0.506647000000     1.007825032230
         H            1.263960000000     2.214578000000     1.342307000000     1.007825032230
         O           -1.935349000000     1.087739000000    -0.470061000000    15.994914619570
         H           -2.792958000000     0.609916000000    -0.258886000000     1.007825032230
         H           -2.113097000000     1.840844000000    -1.058981000000     1.007825032230

  Charge       = 0
  Multiplicity = 1
  Basis Set: AUG-CC-PVTZ
    Blend: AUG-CC-PVTZ
  Basis Set: (AUG-CC-PVTZ AUX)
    Blend: AUG-CC-PVTZ-JKFIT + DEF2-UNIVERSAL-JKFIT

    Orbital Energies [Eh]
    ---------------------

    Doubly Occupied:

       1A    -20.562526     2A    -20.547754     3A    -20.547508
       4A    -20.539582     5A     -1.327057     6A     -1.323744
       7A     -1.318004     8A     -1.312413     9A     -0.701374
      10A     -0.694949    11A     -0.687577    12A     -0.687040
      13A     -0.560961    14A     -0.559443    15A     -0.549664
      16A     -0.542739    17A     -0.497171    18A     -0.487130
      19A     -0.484854    20A     -0.478081

  @DF-RHF Final Energy:  -304.22026759010328

   => Energetics <=

    Nuclear Repulsion Energy =            120.0185892333275177
    One-Electron Energy =                -659.6585669574157009
    Two-Electron Energy =                 235.4197101339849212
    Total Energy =                       -304.2202675901032762
 Dipole X            :          8.8751314           -8.7221557            0.1529757
 Dipole Y            :        -20.8161418           21.8118407            0.9956988
 Dipole Z            :         11.3009367          -10.5113578            0.7895789
 Magnitude           :                                                    1.2799424

    SAPT Results
  --------------------------------------------------------------------------------------------------------
    Electrostatics               -112.63434433 [mEh]     -70.67911814 [kcal/mol]    -295.72143030 [kJ/mol]
      Elst10,r                   -116.75368227 [mEh]     -73.26404172 [kcal/mol]    -306.53675056 [kJ/mol]
      Elst12,r                      4.11933794 [mEh]       2.58492358 [kcal/mol]      10.81532026 [kJ/mol]

    Exchange                       44.30892276 [mEh]      27.80426880 [kcal/mol]     116.33306068 [kJ/mol]
      Exch10                       39.54134442 [mEh]      24.81256823 [kcal/mol]     103.81578548 [kJ/mol]
      Exch10(S^2)                  39.48466203 [mEh]      24.77699950 [kcal/mol]     103.66696589 [kJ/mol]
      Exch11(S^2)                  -0.79813458 [mEh]      -0.50083701 [kcal/mol]      -2.09550204 [kJ/mol]
      Exch12(S^2)                   5.56571291 [mEh]       3.49253758 [kcal/mol]      14.61277724 [kJ/mol]

    Induction                     -35.33308273 [mEh]     -22.17184415 [kcal/mol]     -92.76699593 [kJ/mol]
      Ind20,r                     -70.16437675 [mEh]     -44.02881113 [kcal/mol]    -184.21654577 [kJ/mol]
      Ind22                       -10.95050955 [mEh]      -6.87154848 [kcal/mol]     -28.75055886 [kJ/mol]
      Exch-Ind20,r                 37.06193121 [mEh]      23.25671295 [kcal/mol]      97.30608698 [kJ/mol]
      Exch-Ind22                    5.78423198 [mEh]       3.62966036 [kcal/mol]      15.18649896 [kJ/mol]
      delta HF,r (2)                2.93564038 [mEh]       1.84214215 [kcal/mol]       7.70752276 [kJ/mol]

    Dispersion                     -2.94451495 [mEh]      -1.84771103 [kcal/mol]      -7.73082294 [kJ/mol]
      Disp20                       -2.99817308 [mEh]      -1.88138201 [kcal/mol]      -7.87170234 [kJ/mol]
      Disp21                       -0.10281018 [mEh]      -0.06451436 [kcal/mol]      -0.26992810 [kJ/mol]
      Disp22 (SDQ)                 -0.19130434 [mEh]      -0.12004529 [kcal/mol]      -0.50226948 [kJ/mol]
      Disp22 (T)                   -0.25621234 [mEh]      -0.16077567 [kcal/mol]      -0.67268541 [kJ/mol]
      Est. Disp22 (T)              -0.29246874 [mEh]      -0.18352690 [kcal/mol]      -0.76787657 [kJ/mol]
      Exch-Disp20                   0.64024140 [mEh]       0.40175754 [kcal/mol]       1.68095355 [kJ/mol]

  Total HF                       -107.37914300 [mEh]     -67.38142952 [kcal/mol]    -281.92390111 [kJ/mol]
  Total SAPT0                    -109.73707469 [mEh]     -68.86105399 [kcal/mol]    -288.11464990 [kJ/mol]
  Total SAPT2                    -106.01643599 [mEh]     -66.52631796 [kcal/mol]    -278.34611434 [kJ/mol]
  Total SAPT2+                   -106.60301925 [mEh]     -66.89440452 [kcal/mol]    -279.88618849 [kJ/mol]

  Special recipe for scaled SAPT0 (see Manual):
    Electrostatics sSAPT0        -116.75368227 [mEh]     -73.26404172 [kcal/mol]    -306.53675056 [kJ/mol]
    Exchange sSAPT0                39.54134442 [mEh]      24.81256823 [kcal/mol]     103.81578548 [kJ/mol]
    Induction sSAPT0              -30.00696264 [mEh]     -18.82965333 [kcal/mol]     -78.78326955 [kJ/mol]
    Dispersion sSAPT0              -2.35517042 [mEh]      -1.47789175 [kcal/mol]      -6.18349909 [kJ/mol]
  Total sSAPT0                   -109.57447091 [mEh]     -68.75901858 [kcal/mol]    -287.68773373 [kJ/mol]
  --------------------------------------------------------------------------------------------------------

*** Psi4 exiting successfully. Buy a developer a beer!
