                               Psi4 1.9 release

  ==> Input File <==

--------------------------------------------------------------------------
MEMORY 60 GB

molecule dimer {
1 1
Na     0.000000     0.000000     0.000000
--
0 1
O     -1.892773     1.077634     1.090154
H     -1.602965     1.973592     1.238232
H     -1.975019     0.754811     1.992439
O      1.192296     1.455171     1.151359
H      1.688184     2.107167     0.722719
H      1.351737     1.611920     2.118416
O      0.911499     0.687294    -2.163820
H      0.543602     0.147142    -2.897860
H      1.861899     0.935014    -2.358198
O     -1.234329    -1.488967    -0.941371
H     -1.944835    -1.893957    -0.501962
H     -1.591545    -1.251163    -1.785640

units ang
no_reorient
no_com
symmetry c1
}

set {
basis        aug-cc-pVTZ
scf_type     df
}

energy("sapt2+")
--------------------------------------------------------------------------

  //              Dimer HF             //
    Molecular point group: c1
  Charge       = 1
  Multiplicity = 1
  Basis Set: AUG-CC-PVTZ
    Blend: AUG-CC-PVTZ
  Basis Set: (AUG-CC-PVTZ AUX)
    Blend: AUG-CC-PVTZ-JKFIT + DEF2-UNIVERSAL-JKFIT
  @DF-RHF Final Energy:  -466.01655791478368
    Total Energy =                       -466.0165579147836752
 Dipole X            :         18.8161549          -18.6240031            0.1921518
 Dipole Y            :        -33.6611284           34.4564763            0.7953478
 Dipole Z            :         15.9194691          -15.8383200            0.0811491
 Magnitude           :                                                    0.8222443
  //            Monomer A HF           //
    Molecular point group: c1
  Multiplicity = 1
  Basis Set: AUG-CC-PVTZ
    Blend: AUG-CC-PVTZ
  Basis Set: (AUG-CC-PVTZ AUX)
    Blend: AUG-CC-PVTZ-JKFIT + DEF2-UNIVERSAL-JKFIT
  @DF-RHF Final Energy:  -161.67608463179832
    Total Energy =                       -161.6760846317983180
  //            Monomer B HF           //
    Molecular point group: c1

    Geometry (in Angstrom), charge = 0, multiplicity = 1:

       Center              X                  Y                   Z               Mass
    ------------   -----------------  -----------------  -----------------  -----------------
      Gh(NA)          0.000000000000     0.000000000000     0.000000000000    22.989769282000
         O           -1.892773000000     1.077634000000     1.090154000000    15.994914619570
         H           -1.602965000000     1.973592000000     1.238232000000     1.007825032230
         H           -1.975019000000     0.754811000000     1.992439000000     1.007825032230
         O            1.192296000000     1.455171000000     1.151359000000    15.994914619570
         H            1.688184000000     2.107167000000     0.722719000000     1.007825032230
         H            1.351737000000     1.611920000000     2.118416000000     1.007825032230
         O            0.911499000000     0.687294000000    -2.163820000000    15.994914619570
         H            0.543602000000     0.147142000000    -2.897860000000     1.007825032230
         H            1.861899000000     0.935014000000    -2.358198000000     1.007825032230
         O           -1.234329000000    -1.488967000000    -0.941371000000    15.994914619570
         H           -1.944835000000    -1.893957000000    -0.501962000000     1.007825032230
         H           -1.591545000000    -1.251163000000    -1.785640000000     1.007825032230

  Charge       = 0
  Multiplicity = 1
  Basis Set: AUG-CC-PVTZ
    Blend: AUG-CC-PVTZ
  Basis Set: (AUG-CC-PVTZ AUX)
    Blend: AUG-CC-PVTZ-JKFIT + DEF2-UNIVERSAL-JKFIT

    Orbital Energies [Eh]
    ---------------------

    Doubly Occupied:

       1A    -20.550857     2A    -20.550125     3A    -20.536425
       4A    -20.533669     5A     -1.337351     6A     -1.334655
       7A     -1.324169     8A     -1.313140     9A     -0.701724
      10A     -0.700118    11A     -0.688702    12A     -0.680345
      13A     -0.565759    14A     -0.560727    15A     -0.557756
      16A     -0.544760    17A     -0.496916    18A     -0.485302
      19A     -0.481423    20A     -0.473695

  @DF-RHF Final Energy:  -304.22094243333453

   => Energetics <=

    Nuclear Repulsion Energy =            122.1968982219526509
    One-Electron Energy =                -664.0004407849991139
    Two-Electron Energy =                 237.5826001297119205
    Total Energy =                       -304.2209424333345282
 Dipole X            :         18.9109985          -18.6240031            0.2869954
 Dipole Y            :        -33.8735890           34.4564763            0.5828873
 Dipole Z            :         15.9940672          -15.8383200            0.1557472
 Magnitude           :                                                    0.6681176

    SAPT Results
  --------------------------------------------------------------------------------------------------------
    Electrostatics               -122.08480286 [mEh]     -76.60937040 [kcal/mol]    -320.53360574 [kJ/mol]
      Elst10,r                   -128.91616317 [mEh]     -80.89611371 [kcal/mol]    -338.46933978 [kJ/mol]
      Elst12,r                      6.83136032 [mEh]       4.28674332 [kcal/mol]      17.93573404 [kJ/mol]

    Exchange                       42.83626678 [mEh]      26.88016323 [kcal/mol]     112.46660293 [kJ/mol]
      Exch10                       39.07690982 [mEh]      24.52113112 [kcal/mol]     102.59641260 [kJ/mol]
      Exch10(S^2)                  38.98650877 [mEh]      24.46440360 [kcal/mol]     102.35906468 [kJ/mol]
      Exch11(S^2)                  -0.71442028 [mEh]      -0.44830549 [kcal/mol]      -1.87571018 [kJ/mol]
      Exch12(S^2)                   4.47377723 [mEh]       2.80733760 [kcal/mol]      11.74590051 [kJ/mol]

    Induction                     -34.09017177 [mEh]     -21.39190575 [kcal/mol]     -89.50373366 [kJ/mol]
      Ind20,r                     -66.92277672 [mEh]     -41.99467641 [kcal/mol]    -175.70572608 [kJ/mol]
      Ind22                        -9.09563706 [mEh]      -5.70759842 [kcal/mol]     -23.88059181 [kJ/mol]
      Exch-Ind20,r                 34.55947085 [mEh]      21.68639537 [kcal/mol]      90.73587822 [kJ/mol]
      Exch-Ind22                    4.69706159 [mEh]       2.94745064 [kcal/mol]      12.33213350 [kJ/mol]
      delta HF,r (2)                2.67170957 [mEh]       1.67652307 [kcal/mol]       7.01457252 [kJ/mol]

    Dispersion                     -2.82493118 [mEh]      -1.77267108 [kcal/mol]      -7.41685579 [kJ/mol]
      Disp20                       -2.91271945 [mEh]      -1.82775905 [kcal/mol]      -7.64734386 [kJ/mol]
      Disp21                       -0.07994164 [mEh]      -0.05016414 [kcal/mol]      -0.20988676 [kJ/mol]
      Disp22 (SDQ)                 -0.17452581 [mEh]      -0.10951660 [kcal/mol]      -0.45821744 [kJ/mol]
      Disp22 (T)                   -0.23309661 [mEh]      -0.14627033 [kcal/mol]      -0.61199508 [kJ/mol]
      Est. Disp22 (T)              -0.27498166 [mEh]      -0.17255360 [kcal/mol]      -0.72196425 [kJ/mol]
      Exch-Disp20                   0.61723738 [mEh]       0.38732230 [kcal/mol]       1.62055651 [kJ/mol]

  Total HF                       -119.53084965 [mEh]     -75.00674056 [kcal/mol]    -313.82820252 [kJ/mol]
  Total SAPT0                    -121.82633172 [mEh]     -76.44717731 [kcal/mol]    -319.85498987 [kJ/mol]
  Total SAPT2                    -115.63418992 [mEh]     -72.56154967 [kcal/mol]    -303.59752381 [kJ/mol]
  Total SAPT2+                   -116.16363903 [mEh]     -72.89378400 [kcal/mol]    -304.98759226 [kJ/mol]

  Special recipe for scaled SAPT0 (see Manual):
    Electrostatics sSAPT0        -128.91616317 [mEh]     -80.89611371 [kcal/mol]    -338.46933978 [kJ/mol]
    Exchange sSAPT0                39.07690982 [mEh]      24.52113112 [kcal/mol]     102.59641260 [kJ/mol]
    Induction sSAPT0              -29.45063122 [mEh]     -18.48055010 [kcal/mol]     -77.32262161 [kJ/mol]
    Dispersion sSAPT0              -2.29117840 [mEh]      -1.43773615 [kcal/mol]      -6.01548806 [kJ/mol]
  Total sSAPT0                   -121.58106297 [mEh]     -76.29326885 [kcal/mol]    -319.21103685 [kJ/mol]
  --------------------------------------------------------------------------------------------------------

*** Psi4 exiting successfully. Buy a developer a beer!
