                               Psi4 1.9 release

  ==> Input File <==

--------------------------------------------------------------------------
MEMORY 60 GB

molecule dimer {
1 1
Na     0.000000     0.000000     0.000000
--
0 1
O     -2.517737    -0.044737    -0.085663
H     -3.125824    -0.331550     0.584585
H     -3.129699     0.377416    -0.724333
O      2.465683     0.516957    -0.150294
H      2.739106     0.958987    -0.927177
H      2.451782     1.135025     0.576683
O     -0.121149    -0.310658    -2.292460
H     -0.296325    -1.265691    -2.370924
H      0.649829    -0.216062    -2.847853
O      0.358147     0.856708     2.301374
H      0.939411     1.103103     2.980068
H     -0.519149     1.038533     2.680292
O      0.057029    -2.251503     0.686124
H      0.872420    -2.539387     0.293641
H     -0.333279    -3.125313     0.756646

units ang
no_reorient
no_com
symmetry c1
}

set {
basis        aug-cc-pVTZ
scf_type     df
}

energy("sapt2+")
--------------------------------------------------------------------------

  //              Dimer HF             //
    Molecular point group: c1
  Charge       = 1
  Multiplicity = 1
  Basis Set: AUG-CC-PVTZ
    Blend: AUG-CC-PVTZ
  Basis Set: (AUG-CC-PVTZ AUX)
    Blend: AUG-CC-PVTZ-JKFIT + DEF2-UNIVERSAL-JKFIT
  @DF-RHF Final Energy:  -542.09570272771634
    Total Energy =                       -542.0957027277163434
 Dipole X            :         -4.3055139            4.1272677           -0.1782462
 Dipole Y            :         23.6843534          -24.0577310           -0.3733777
 Dipole Z            :         -8.6973650            8.8331015            0.1357364
 Magnitude           :                                                    0.4354388
  //            Monomer A HF           //
    Molecular point group: c1
  Multiplicity = 1
  Basis Set: AUG-CC-PVTZ
    Blend: AUG-CC-PVTZ
  Basis Set: (AUG-CC-PVTZ AUX)
    Blend: AUG-CC-PVTZ-JKFIT + DEF2-UNIVERSAL-JKFIT
  @DF-RHF Final Energy:  -161.67608950825101
    Total Energy =                       -161.6760895082510388
  //            Monomer B HF           //
    Molecular point group: c1

    Geometry (in Angstrom), charge = 0, multiplicity = 1:

       Center              X                  Y                   Z               Mass
    ------------   -----------------  -----------------  -----------------  -----------------
      Gh(NA)          0.000000000000     0.000000000000     0.000000000000    22.989769282000
         O           -2.517737000000    -0.044737000000    -0.085663000000    15.994914619570
         H           -3.125824000000    -0.331550000000     0.584585000000     1.007825032230
         H           -3.129699000000     0.377416000000    -0.724333000000     1.007825032230
         O            2.465683000000     0.516957000000    -0.150294000000    15.994914619570
         H            2.739106000000     0.958987000000    -0.927177000000     1.007825032230
         H            2.451782000000     1.135025000000     0.576683000000     1.007825032230
         O           -0.121149000000    -0.310658000000    -2.292460000000    15.994914619570
         H           -0.296325000000    -1.265691000000    -2.370924000000     1.007825032230
         H            0.649829000000    -0.216062000000    -2.847853000000     1.007825032230
         O            0.358147000000     0.856708000000     2.301374000000    15.994914619570
         H            0.939411000000     1.103103000000     2.980068000000     1.007825032230
         H           -0.519149000000     1.038533000000     2.680292000000     1.007825032230
         O            0.057029000000    -2.251503000000     0.686124000000    15.994914619570
         H            0.872420000000    -2.539387000000     0.293641000000     1.007825032230
         H           -0.333279000000    -3.125313000000     0.756646000000     1.007825032230

  Charge       = 0
  Multiplicity = 1
  Basis Set: AUG-CC-PVTZ
    Blend: AUG-CC-PVTZ
  Basis Set: (AUG-CC-PVTZ AUX)
    Blend: AUG-CC-PVTZ-JKFIT + DEF2-UNIVERSAL-JKFIT

    Orbital Energies [Eh]
    ---------------------

    Doubly Occupied:

       1A    -20.542344     2A    -20.541891     3A    -20.536920
       4A    -20.536673     5A    -20.531857     6A     -1.335449
       7A     -1.328112     8A     -1.326243     9A     -1.324190
      10A     -1.319027    11A     -0.705270    12A     -0.695113
      13A     -0.678725    14A     -0.674078    15A     -0.667663
      16A     -0.569992    17A     -0.561484    18A     -0.559913
      19A     -0.551781    20A     -0.547372    21A     -0.488166
      22A     -0.483441    23A     -0.482093    24A     -0.477716
      25A     -0.471333

  @DF-RHF Final Energy:  -380.28257275675350

   => Energetics <=

    Nuclear Repulsion Energy =            183.1914309415948310
    One-Electron Energy =                -891.0743084765406365
    Two-Electron Energy =                 327.6003047781923101
    Total Energy =                       -380.2825727567534955
 Dipole X            :         -4.3186079            4.1272677           -0.1913402
 Dipole Y            :         23.8629815          -24.0577310           -0.1947495
 Dipole Z            :         -8.7094777            8.8331015            0.1236237
 Magnitude           :                                                    0.2997020

    SAPT Results
  --------------------------------------------------------------------------------------------------------
    Electrostatics               -122.27260338 [mEh]     -76.72721701 [kcal/mol]    -321.02667596 [kJ/mol]
      Elst10,r                   -130.10477162 [mEh]     -81.64197677 [kcal/mol]    -341.59003082 [kJ/mol]
      Elst12,r                      7.83216823 [mEh]       4.91475977 [kcal/mol]      20.56335487 [kJ/mol]

    Exchange                       27.53570830 [mEh]      17.27891782 [kcal/mol]      72.29499217 [kJ/mol]
      Exch10                       24.45492374 [mEh]      15.34569633 [kcal/mol]      64.20639345 [kJ/mol]
      Exch10(S^2)                  24.43152205 [mEh]      15.33101155 [kcal/mol]      64.14495231 [kJ/mol]
      Exch11(S^2)                  -0.50465021 [mEh]      -0.31667279 [kcal/mol]      -1.32495895 [kJ/mol]
      Exch12(S^2)                   3.58543476 [mEh]       2.24989428 [kcal/mol]       9.41355768 [kJ/mol]

    Induction                     -36.16843812 [mEh]     -22.69603757 [kcal/mol]     -94.96022120 [kJ/mol]
      Ind20,r                     -54.83985407 [mEh]     -34.41252797 [kcal/mol]    -143.98201703 [kJ/mol]
      Ind22                        -7.92224162 [mEh]      -4.97128167 [kcal/mol]     -20.79984250 [kJ/mol]
      Exch-Ind20,r                 21.76649629 [mEh]      13.65868264 [kcal/mol]      57.14792815 [kJ/mol]
      Exch-Ind22                    3.14441834 [mEh]       1.97315230 [kcal/mol]       8.25566921 [kJ/mol]
      delta HF,r (2)                1.68274294 [mEh]       1.05593714 [kcal/mol]       4.41804098 [kJ/mol]

    Dispersion                     -2.67685315 [mEh]      -1.67975071 [kcal/mol]      -7.02807699 [kJ/mol]
      Disp20                       -2.58594689 [mEh]      -1.62270617 [kcal/mol]      -6.78940262 [kJ/mol]
      Disp21                       -0.08032647 [mEh]      -0.05040562 [kcal/mol]      -0.21089713 [kJ/mol]
      Disp22 (SDQ)                 -0.16647669 [mEh]      -0.10446570 [kcal/mol]      -0.43708449 [kJ/mol]
      Disp22 (T)                   -0.22224856 [mEh]      -0.13946308 [kcal/mol]      -0.58351352 [kJ/mol]
      Est. Disp22 (T)              -0.25486090 [mEh]      -0.15992763 [kcal/mol]      -0.66913719 [kJ/mol]
      Exch-Disp20                   0.41075780 [mEh]       0.25775441 [kcal/mol]       1.07844445 [kJ/mol]

  Total HF                       -137.04046271 [mEh]     -85.99418864 [kcal/mol]    -359.79968528 [kJ/mol]
  Total SAPT0                    -139.21565180 [mEh]     -87.35914040 [kcal/mol]    -365.51064345 [kJ/mol]
  Total SAPT2                    -133.08052230 [mEh]     -83.50928852 [kcal/mol]    -349.40286315 [kJ/mol]
  Total SAPT2+                   -133.58218636 [mEh]     -83.82408747 [kcal/mol]    -350.71998197 [kJ/mol]

  Special recipe for scaled SAPT0 (see Manual):
    Electrostatics sSAPT0        -130.10477162 [mEh]     -81.64197677 [kcal/mol]    -341.59003082 [kJ/mol]
    Exchange sSAPT0                24.45492374 [mEh]      15.34569633 [kcal/mol]      64.20639345 [kJ/mol]
    Induction sSAPT0              -31.32800790 [mEh]     -19.65862175 [kcal/mol]     -82.25167342 [kJ/mol]
    Dispersion sSAPT0              -2.17400763 [mEh]      -1.36421038 [kcal/mol]      -5.70785624 [kJ/mol]
  Total sSAPT0                   -139.15186341 [mEh]     -87.31911258 [kcal/mol]    -365.34316704 [kJ/mol]
  --------------------------------------------------------------------------------------------------------

*** Psi4 exiting successfully. Buy a developer a beer!
