                               Psi4 1.9 release

  ==> Input File <==

--------------------------------------------------------------------------
MEMORY 60 GB

molecule dimer {
1 1
Na     0.000000     0.000000     0.000000
--
0 1
O     -0.085993    -0.051936     2.343220
H     -0.599866    -0.003832     3.188434
H      0.778341    -0.468547     2.524807
O      2.159561    -1.126299    -0.201753
H      1.903159    -2.089420    -0.306342
H      2.923664    -1.015931     0.394549
O     -0.673308    -2.158843    -0.874591
H      0.102825    -2.750161    -0.727233
H     -1.552860    -2.612781    -0.616624
O     -2.368348     0.405229     0.230721
H     -3.034658    -0.039810    -0.350273
H     -2.312455    -0.001856     1.105513
O      0.056969     1.381147    -1.944871
H     -0.073372     0.905950    -2.745897
H     -0.537018     2.128393    -2.087984

units ang
no_reorient
no_com
symmetry c1
}

set {
basis        aug-cc-pVTZ
scf_type     df
}

energy("sapt2+")
--------------------------------------------------------------------------

  //              Dimer HF             //
    Molecular point group: c1
  Charge       = 1
  Multiplicity = 1
  Basis Set: AUG-CC-PVTZ
    Blend: AUG-CC-PVTZ
  Basis Set: (AUG-CC-PVTZ AUX)
    Blend: AUG-CC-PVTZ-JKFIT + DEF2-UNIVERSAL-JKFIT
  @DF-RHF Final Energy:  -542.07006343282978
    Total Energy =                       -542.0700634328297838
 Dipole X            :         17.8884050          -18.3136987           -0.4252937
 Dipole Y            :         32.6872359          -34.6832982           -1.9960623
 Dipole Z            :          6.8994347           -6.0456912            0.8537435
 Magnitude           :                                                    2.2122426
  //            Monomer A HF           //
    Molecular point group: c1
  Multiplicity = 1
  Basis Set: AUG-CC-PVTZ
    Blend: AUG-CC-PVTZ
  Basis Set: (AUG-CC-PVTZ AUX)
    Blend: AUG-CC-PVTZ-JKFIT + DEF2-UNIVERSAL-JKFIT
  @DF-RHF Final Energy:  -161.67609074866908
    Total Energy =                       -161.6760907486691110
  //            Monomer B HF           //
    Molecular point group: c1

    Geometry (in Angstrom), charge = 0, multiplicity = 1:

       Center              X                  Y                   Z               Mass
    ------------   -----------------  -----------------  -----------------  -----------------
      Gh(NA)          0.000000000000     0.000000000000     0.000000000000    22.989769282000
         O           -0.085993000000    -0.051936000000     2.343220000000    15.994914619570
         H           -0.599866000000    -0.003832000000     3.188434000000     1.007825032230
         H            0.778341000000    -0.468547000000     2.524807000000     1.007825032230
         O            2.159561000000    -1.126299000000    -0.201753000000    15.994914619570
         H            1.903159000000    -2.089420000000    -0.306342000000     1.007825032230
         H            2.923664000000    -1.015931000000     0.394549000000     1.007825032230
         O           -0.673308000000    -2.158843000000    -0.874591000000    15.994914619570
         H            0.102825000000    -2.750161000000    -0.727233000000     1.007825032230
         H           -1.552860000000    -2.612781000000    -0.616624000000     1.007825032230
         O           -2.368348000000     0.405229000000     0.230721000000    15.994914619570
         H           -3.034658000000    -0.039810000000    -0.350273000000     1.007825032230
         H           -2.312455000000    -0.001856000000     1.105513000000     1.007825032230
         O            0.056969000000     1.381147000000    -1.944871000000    15.994914619570
         H           -0.073372000000     0.905950000000    -2.745897000000     1.007825032230
         H           -0.537018000000     2.128393000000    -2.087984000000     1.007825032230

  Charge       = 0
  Multiplicity = 1
  Basis Set: AUG-CC-PVTZ
    Blend: AUG-CC-PVTZ
  Basis Set: (AUG-CC-PVTZ AUX)
    Blend: AUG-CC-PVTZ-JKFIT + DEF2-UNIVERSAL-JKFIT

    Orbital Energies [Eh]
    ---------------------

    Doubly Occupied:

       1A    -20.559985     2A    -20.558248     3A    -20.556918
       4A    -20.530621     5A    -20.523290     6A     -1.325333
       7A     -1.322946     8A     -1.314367     9A     -1.313807
      10A     -1.301654    11A     -0.712996    12A     -0.700261
      13A     -0.686118    14A     -0.683356    15A     -0.667166
      16A     -0.557845    17A     -0.553844    18A     -0.546498
      19A     -0.544130    20A     -0.529165    21A     -0.499055
      22A     -0.492852    23A     -0.488205    24A     -0.470019
      25A     -0.462818

  @DF-RHF Final Energy:  -380.25785413683894

   => Energetics <=

    Nuclear Repulsion Energy =            185.6783177834867047
    One-Electron Energy =                -896.0693411232764447
    Two-Electron Energy =                 330.1331692029507963
    Total Energy =                       -380.2578541368389438
 Dipole X            :         18.0414518          -18.3136987           -0.2722469
 Dipole Y            :         32.9306077          -34.6832982           -1.7526905
 Dipole Z            :          6.8928989           -6.0456912            0.8472077
 Magnitude           :                                                    1.9656559

    SAPT Results
  --------------------------------------------------------------------------------------------------------
    Electrostatics               -123.55437444 [mEh]     -77.53154049 [kcal/mol]    -324.39196540 [kJ/mol]
      Elst10,r                   -131.02930934 [mEh]     -82.22213295 [kcal/mol]    -344.01740427 [kJ/mol]
      Elst12,r                      7.47493490 [mEh]       4.69059246 [kcal/mol]      19.62543887 [kJ/mol]

    Exchange                       31.47783421 [mEh]      19.75263918 [kcal/mol]      82.64504234 [kJ/mol]
      Exch10                       27.90217906 [mEh]      17.50888170 [kcal/mol]      73.25716104 [kJ/mol]
      Exch10(S^2)                  27.88042818 [mEh]      17.49523282 [kcal/mol]      73.20005411 [kJ/mol]
      Exch11(S^2)                  -0.59937366 [mEh]      -0.37611265 [kcal/mol]      -1.57365534 [kJ/mol]
      Exch12(S^2)                   4.17502881 [mEh]       2.61987013 [kcal/mol]      10.96153664 [kJ/mol]

    Induction                     -38.29003096 [mEh]     -24.02735718 [kcal/mol]    -100.53046243 [kJ/mol]
      Ind20,r                     -59.82981585 [mEh]     -37.54377626 [kcal/mol]    -157.08315987 [kJ/mol]
      Ind22                        -9.07210388 [mEh]      -5.69283113 [kcal/mol]     -23.81880547 [kJ/mol]
      Exch-Ind20,r                 24.88587137 [mEh]      15.61612005 [kcal/mol]      65.33784629 [kJ/mol]
      Exch-Ind22                    3.77348998 [mEh]       2.36790071 [kcal/mol]       9.90729657 [kJ/mol]
      delta HF,r (2)                1.95252743 [mEh]       1.22522946 [kcal/mol]       5.12636005 [kJ/mol]

    Dispersion                     -2.94322355 [mEh]      -1.84690066 [kcal/mol]      -7.72743236 [kJ/mol]
      Disp20                       -2.87004897 [mEh]      -1.80098292 [kcal/mol]      -7.53531254 [kJ/mol]
      Disp21                       -0.08604874 [mEh]      -0.05399640 [kcal/mol]      -0.22592094 [kJ/mol]
      Disp22 (SDQ)                 -0.18129297 [mEh]      -0.11376306 [kcal/mol]      -0.47598463 [kJ/mol]
      Disp22 (T)                   -0.24726421 [mEh]      -0.15516063 [kcal/mol]      -0.64919210 [kJ/mol]
      Est. Disp22 (T)              -0.28318717 [mEh]      -0.17770263 [kcal/mol]      -0.74350781 [kJ/mol]
      Exch-Disp20                   0.47735430 [mEh]       0.29954435 [kcal/mol]       1.25329355 [kJ/mol]

  Total HF                       -136.11854732 [mEh]     -85.41567800 [kcal/mol]    -357.37919676 [kJ/mol]
  Total SAPT0                    -138.51124199 [mEh]     -86.91711657 [kcal/mol]    -363.66121575 [kJ/mol]
  Total SAPT2                    -132.75926585 [mEh]     -83.30769705 [kcal/mol]    -348.55940447 [kJ/mol]
  Total SAPT2+                   -133.30979473 [mEh]     -83.65315914 [kcal/mol]    -350.00481785 [kJ/mol]

  Special recipe for scaled SAPT0 (see Manual):
    Electrostatics sSAPT0        -131.02930934 [mEh]     -82.22213295 [kcal/mol]    -344.01740427 [kJ/mol]
    Exchange sSAPT0                27.90217906 [mEh]      17.50888170 [kcal/mol]      73.25716104 [kJ/mol]
    Induction sSAPT0              -32.93312756 [mEh]     -20.66584954 [kcal/mol]     -86.46591449 [kJ/mol]
    Dispersion sSAPT0              -2.39157658 [mEh]      -1.50073696 [kcal/mol]      -6.27908343 [kJ/mol]
  Total sSAPT0                   -138.45183441 [mEh]     -86.87983775 [kcal/mol]    -363.50524115 [kJ/mol]
  --------------------------------------------------------------------------------------------------------

*** Psi4 exiting successfully. Buy a developer a beer!
