                               Psi4 1.9 release

  ==> Input File <==

--------------------------------------------------------------------------
MEMORY 60 GB

molecule dimer {
1 1
Na     0.000000     0.000000     0.000000
--
0 1
O      1.883305    -0.787728     1.103306
H      1.885842    -1.374752     1.892927
H      2.452066    -1.205300     0.437928
O     -0.532091    -2.130325    -0.632144
H     -0.199576    -2.040712    -1.524978
H      0.239557    -2.564379    -0.117632
O     -2.191649     0.554956    -0.988319
H     -2.198458     1.493372    -1.035750
H     -3.034836     0.267373    -0.638305
O      1.316751     0.763309    -1.800840
H      0.984517     0.646102    -2.716363
H      1.851374     1.546851    -1.595691

units ang
no_reorient
no_com
symmetry c1
}

set {
basis        aug-cc-pVTZ
scf_type     df
}

energy("sapt2+")
--------------------------------------------------------------------------

  //              Dimer HF             //
    Molecular point group: c1
  Charge       = 1
  Multiplicity = 1
  Basis Set: AUG-CC-PVTZ
    Blend: AUG-CC-PVTZ
  Basis Set: (AUG-CC-PVTZ AUX)
    Blend: AUG-CC-PVTZ-JKFIT + DEF2-UNIVERSAL-JKFIT
  @DF-RHF Final Energy:  -466.00499132058201
    Total Energy =                       -466.0049913205820076
 Dipole X            :        -10.1962736           10.9434304            0.7471568
 Dipole Y            :         30.1935645          -30.2918355           -0.0982710
 Dipole Z            :         44.3766304          -45.0545479           -0.6779176
 Magnitude           :                                                    1.0136433
  //            Monomer A HF           //
    Molecular point group: c1
  Multiplicity = 1
  Basis Set: AUG-CC-PVTZ
    Blend: AUG-CC-PVTZ
  Basis Set: (AUG-CC-PVTZ AUX)
    Blend: AUG-CC-PVTZ-JKFIT + DEF2-UNIVERSAL-JKFIT
  @DF-RHF Final Energy:  -161.67608526034414
    Total Energy =                       -161.6760852603441663
  //            Monomer B HF           //
    Molecular point group: c1

    Geometry (in Angstrom), charge = 0, multiplicity = 1:

       Center              X                  Y                   Z               Mass
    ------------   -----------------  -----------------  -----------------  -----------------
      Gh(NA)          0.000000000000     0.000000000000     0.000000000000    22.989769282000
         O            1.883305000000    -0.787728000000     1.103306000000    15.994914619570
         H            1.885842000000    -1.374752000000     1.892927000000     1.007825032230
         H            2.452066000000    -1.205300000000     0.437928000000     1.007825032230
         O           -0.532091000000    -2.130325000000    -0.632144000000    15.994914619570
         H           -0.199576000000    -2.040712000000    -1.524978000000     1.007825032230
         H            0.239557000000    -2.564379000000    -0.117632000000     1.007825032230
         O           -2.191649000000     0.554956000000    -0.988319000000    15.994914619570
         H           -2.198458000000     1.493372000000    -1.035750000000     1.007825032230
         H           -3.034836000000     0.267373000000    -0.638305000000     1.007825032230
         O            1.316751000000     0.763309000000    -1.800840000000    15.994914619570
         H            0.984517000000     0.646102000000    -2.716363000000     1.007825032230
         H            1.851374000000     1.546851000000    -1.595691000000     1.007825032230

  Charge       = 0
  Multiplicity = 1
  Basis Set: AUG-CC-PVTZ
    Blend: AUG-CC-PVTZ
  Basis Set: (AUG-CC-PVTZ AUX)
    Blend: AUG-CC-PVTZ-JKFIT + DEF2-UNIVERSAL-JKFIT

    Orbital Energies [Eh]
    ---------------------

    Doubly Occupied:

       1A    -20.556836     2A    -20.551249     3A    -20.538549
       4A    -20.538222     5A     -1.330372     6A     -1.329949
       7A     -1.323035     8A     -1.304040     9A     -0.719935
      10A     -0.704411    11A     -0.699076    12A     -0.666897
      13A     -0.563328    14A     -0.555997    15A     -0.544242
      16A     -0.538915    17A     -0.497344    18A     -0.492060
      19A     -0.484334    20A     -0.469692

  @DF-RHF Final Energy:  -304.21897457877526

   => Energetics <=

    Nuclear Repulsion Energy =            122.5255288445619613
    One-Electron Energy =                -664.6720335157068575
    Two-Electron Energy =                 237.9275300923695511
    Total Energy =                       -304.2189745787752599
 Dipole X            :        -10.3028118           10.9434304            0.6406187
 Dipole Y            :         30.4137532          -30.2918355            0.1219177
 Dipole Z            :         44.6485123          -45.0545479           -0.4060356
 Magnitude           :                                                    0.7681934

    SAPT Results
  --------------------------------------------------------------------------------------------------------
    Electrostatics               -108.99999149 [mEh]     -68.39852730 [kcal/mol]    -286.17943822 [kJ/mol]
      Elst10,r                   -113.45393557 [mEh]     -71.19341941 [kcal/mol]    -297.87326680 [kJ/mol]
      Elst12,r                      4.45394408 [mEh]       2.79489211 [kcal/mol]      11.69382858 [kJ/mol]

    Exchange                       35.92232936 [mEh]      22.54160199 [kcal/mol]      94.31406274 [kJ/mol]
      Exch10                       31.82907482 [mEh]      19.97304599 [kcal/mol]      83.56722442 [kJ/mol]
      Exch10(S^2)                  31.76788522 [mEh]      19.93464894 [kcal/mol]      83.40657117 [kJ/mol]
      Exch11(S^2)                  -0.61149113 [mEh]      -0.38371648 [kcal/mol]      -1.60546975 [kJ/mol]
      Exch12(S^2)                   4.70474567 [mEh]       2.95227248 [kcal/mol]      12.35230807 [kJ/mol]

    Induction                     -33.11974742 [mEh]     -20.78295528 [kcal/mol]     -86.95588488 [kJ/mol]
      Ind20,r                     -60.82209703 [mEh]     -38.16644210 [kcal/mol]    -159.68839375 [kJ/mol]
      Ind22                        -9.53800411 [mEh]      -5.98518794 [kcal/mol]     -25.04202634 [kJ/mol]
      Exch-Ind20,r                 30.12967368 [mEh]      18.90665568 [kcal/mol]      79.10544736 [kJ/mol]
      Exch-Ind22                    4.72487740 [mEh]       2.96490533 [kcal/mol]      12.40516390 [kJ/mol]
      delta HF,r (2)                2.38580264 [mEh]       1.49711376 [kcal/mol]       6.26392396 [kJ/mol]

    Dispersion                     -2.61270776 [mEh]      -1.63949887 [kcal/mol]      -6.85966329 [kJ/mol]
      Disp20                       -2.59545283 [mEh]      -1.62867124 [kcal/mol]      -6.81436047 [kJ/mol]
      Disp21                       -0.09125349 [mEh]      -0.05726243 [kcal/mol]      -0.23958600 [kJ/mol]
      Disp22 (SDQ)                 -0.16814717 [mEh]      -0.10551394 [kcal/mol]      -0.44147033 [kJ/mol]
      Disp22 (T)                   -0.22265300 [mEh]      -0.13971687 [kcal/mol]      -0.58457537 [kJ/mol]
      Est. Disp22 (T)              -0.25573944 [mEh]      -0.16047892 [kcal/mol]      -0.67144380 [kJ/mol]
      Exch-Disp20                   0.49788516 [mEh]       0.31242766 [kcal/mol]       1.30719731 [kJ/mol]

  Total HF                       -109.93148146 [mEh]     -68.98304608 [kcal/mol]    -288.62506482 [kJ/mol]
  Total SAPT0                    -112.02904913 [mEh]     -70.29928967 [kcal/mol]    -294.13222798 [kJ/mol]
  Total SAPT2                    -108.29497722 [mEh]     -67.95612417 [kcal/mol]    -284.32842353 [kJ/mol]
  Total SAPT2+                   -108.81011732 [mEh]     -68.27937946 [kcal/mol]    -285.68092366 [kJ/mol]

  Special recipe for scaled SAPT0 (see Manual):
    Electrostatics sSAPT0        -113.45393557 [mEh]     -71.19341941 [kcal/mol]    -297.87326680 [kJ/mol]
    Exchange sSAPT0                31.82907482 [mEh]      19.97304599 [kcal/mol]      83.56722442 [kJ/mol]
    Induction sSAPT0              -28.13218267 [mEh]     -17.65321115 [kcal/mol]     -73.86103544 [kJ/mol]
    Dispersion sSAPT0              -2.09468513 [mEh]      -1.31443476 [kcal/mol]      -5.49959504 [kJ/mol]
  Total sSAPT0                   -111.85172855 [mEh]     -70.18801933 [kcal/mol]    -293.66667286 [kJ/mol]
  --------------------------------------------------------------------------------------------------------

*** Psi4 exiting successfully. Buy a developer a beer!
