                               Psi4 1.9 release

  ==> Input File <==

--------------------------------------------------------------------------
MEMORY 60 GB

molecule dimer {
1 1
Na     0.000000     0.000000     0.000000
--
0 1
O     -0.782764     1.574336     1.489851
H     -0.365882     2.444567     1.403941
H     -1.011175     1.409415     2.372406
O     -0.098756     1.868143    -1.484671
H      0.699059     2.415994    -1.669660
H     -0.606397     1.831447    -2.328393
O      1.230954    -0.321593     2.079717
H      1.596389    -1.191434     1.961752
H      2.015878     0.284373     2.134339
O     -1.145709    -1.300220    -1.924777
H     -1.877147    -0.797909    -2.151236
H     -1.485771    -2.184237    -1.927249
O      1.838755    -0.607862    -1.272790
H      1.384497    -0.352534    -2.065372
H      2.683776    -0.133099    -1.228283

units ang
no_reorient
no_com
symmetry c1
}

set {
basis        aug-cc-pVTZ
scf_type     df
}

energy("sapt2+")
--------------------------------------------------------------------------

  //              Dimer HF             //
    Molecular point group: c1
  Charge       = 1
  Multiplicity = 1
  Basis Set: AUG-CC-PVTZ
    Blend: AUG-CC-PVTZ
  Basis Set: (AUG-CC-PVTZ AUX)
    Blend: AUG-CC-PVTZ-JKFIT + DEF2-UNIVERSAL-JKFIT
  @DF-RHF Final Energy:  -542.08688083233915
    Total Energy =                       -542.0868808323391477
 Dipole X            :        -20.8337460           21.4919818            0.6582358
 Dipole Y            :        -24.4121059           25.3771605            0.9650546
 Dipole Z            :         22.4867027          -23.4309315           -0.9442289
 Magnitude           :                                                    1.5020562
  //            Monomer A HF           //
    Molecular point group: c1
  Multiplicity = 1
  Basis Set: AUG-CC-PVTZ
    Blend: AUG-CC-PVTZ
  Basis Set: (AUG-CC-PVTZ AUX)
    Blend: AUG-CC-PVTZ-JKFIT + DEF2-UNIVERSAL-JKFIT
  @DF-RHF Final Energy:  -161.67609095509974
    Total Energy =                       -161.6760909550997383
  //            Monomer B HF           //
    Molecular point group: c1

    Geometry (in Angstrom), charge = 0, multiplicity = 1:

       Center              X                  Y                   Z               Mass
    ------------   -----------------  -----------------  -----------------  -----------------
      Gh(NA)          0.000000000000     0.000000000000     0.000000000000    22.989769282000
         O           -0.782764000000     1.574336000000     1.489851000000    15.994914619570
         H           -0.365882000000     2.444567000000     1.403941000000     1.007825032230
         H           -1.011175000000     1.409415000000     2.372406000000     1.007825032230
         O           -0.098756000000     1.868143000000    -1.484671000000    15.994914619570
         H            0.699059000000     2.415994000000    -1.669660000000     1.007825032230
         H           -0.606397000000     1.831447000000    -2.328393000000     1.007825032230
         O            1.230954000000    -0.321593000000     2.079717000000    15.994914619570
         H            1.596389000000    -1.191434000000     1.961752000000     1.007825032230
         H            2.015878000000     0.284373000000     2.134339000000     1.007825032230
         O           -1.145709000000    -1.300220000000    -1.924777000000    15.994914619570
         H           -1.877147000000    -0.797909000000    -2.151236000000     1.007825032230
         H           -1.485771000000    -2.184237000000    -1.927249000000     1.007825032230
         O            1.838755000000    -0.607862000000    -1.272790000000    15.994914619570
         H            1.384497000000    -0.352534000000    -2.065372000000     1.007825032230
         H            2.683776000000    -0.133099000000    -1.228283000000     1.007825032230

  Charge       = 0
  Multiplicity = 1
  Basis Set: AUG-CC-PVTZ
    Blend: AUG-CC-PVTZ
  Basis Set: (AUG-CC-PVTZ AUX)
    Blend: AUG-CC-PVTZ-JKFIT + DEF2-UNIVERSAL-JKFIT

    Orbital Energies [Eh]
    ---------------------

    Doubly Occupied:

       1A    -20.556565     2A    -20.546152     3A    -20.533532
       4A    -20.529252     5A    -20.517225     6A     -1.352330
       7A     -1.324955     8A     -1.313710     9A     -1.312916
      10A     -1.308278    11A     -0.713046    12A     -0.693059
      13A     -0.689984    14A     -0.689344    15A     -0.676823
      16A     -0.575741    17A     -0.560688    18A     -0.548294
      19A     -0.540526    20A     -0.525822    21A     -0.497321
      22A     -0.495530    23A     -0.476084    24A     -0.466841
      25A     -0.458345

  @DF-RHF Final Energy:  -380.27619833022118

   => Energetics <=

    Nuclear Repulsion Energy =            188.8440804843686180
    One-Electron Energy =                -902.4358198150695216
    Two-Electron Energy =                 333.3155410004796977
    Total Energy =                       -380.2761983302211775
 Dipole X            :        -21.0241227           21.4919818            0.4678592
 Dipole Y            :        -24.6197996           25.3771605            0.7573609
 Dipole Z            :         22.6112556          -23.4309315           -0.8196759
 Magnitude           :                                                    1.2101059

    SAPT Results
  --------------------------------------------------------------------------------------------------------
    Electrostatics               -125.79036791 [mEh]     -78.93464757 [kcal/mol]    -330.26256544 [kJ/mol]
      Elst10,r                   -132.72219617 [mEh]     -83.28443548 [kcal/mol]    -348.46207805 [kJ/mol]
      Elst12,r                      6.93182826 [mEh]       4.34978791 [kcal/mol]      18.19951260 [kJ/mol]

    Exchange                       34.19307295 [mEh]      21.45647722 [kcal/mol]      89.77390067 [kJ/mol]
      Exch10                       30.40657571 [mEh]      19.08041432 [kcal/mol]      79.83245353 [kJ/mol]
      Exch10(S^2)                  30.36437370 [mEh]      19.05393216 [kcal/mol]      79.72165216 [kJ/mol]
      Exch11(S^2)                  -0.63559935 [mEh]      -0.39884461 [kcal/mol]      -1.66876586 [kJ/mol]
      Exch12(S^2)                   4.42209659 [mEh]       2.77490751 [kcal/mol]      11.61021300 [kJ/mol]

    Induction                     -37.50594570 [mEh]     -23.53533625 [kcal/mol]     -98.47184688 [kJ/mol]
      Ind20,r                     -61.67198770 [mEh]     -38.69975655 [kcal/mol]    -161.91978139 [kJ/mol]
      Ind22                        -9.40109841 [mEh]      -5.89927832 [kcal/mol]     -24.68258047 [kJ/mol]
      Exch-Ind20,r                 27.36262696 [mEh]      17.17030764 [kcal/mol]      71.84056719 [kJ/mol]
      Exch-Ind22                    4.17107926 [mEh]       2.61739175 [kcal/mol]      10.95116709 [kJ/mol]
      delta HF,r (2)                2.03343418 [mEh]       1.27599921 [kcal/mol]       5.33878071 [kJ/mol]

    Dispersion                     -2.98310114 [mEh]      -1.87192423 [kcal/mol]      -7.83213096 [kJ/mol]
      Disp20                       -2.93773221 [mEh]      -1.84345480 [kcal/mol]      -7.71301486 [kJ/mol]
      Disp21                       -0.08419461 [mEh]      -0.05283292 [kcal/mol]      -0.22105293 [kJ/mol]
      Disp22 (SDQ)                 -0.18791861 [mEh]      -0.11792071 [kcal/mol]      -0.49338023 [kJ/mol]
      Disp22 (T)                   -0.25005618 [mEh]      -0.15691262 [kcal/mol]      -0.65652242 [kJ/mol]
      Est. Disp22 (T)              -0.28691752 [mEh]      -0.18004346 [kcal/mol]      -0.75330184 [kJ/mol]
      Exch-Disp20                   0.51366181 [mEh]       0.32232765 [kcal/mol]       1.34861890 [kJ/mol]

  Total HF                       -134.59154702 [mEh]     -84.45747084 [kcal/mol]    -353.37005801 [kJ/mol]
  Total SAPT0                    -137.01561742 [mEh]     -85.97859799 [kcal/mol]    -359.73445398 [kJ/mol]
  Total SAPT2                    -131.52731106 [mEh]     -82.53463375 [kcal/mol]    -345.32490762 [kJ/mol]
  Total SAPT2+                   -132.08634180 [mEh]     -82.88543084 [kcal/mol]    -346.79264261 [kJ/mol]

  Special recipe for scaled SAPT0 (see Manual):
    Electrostatics sSAPT0        -132.72219617 [mEh]     -83.28443548 [kcal/mol]    -348.46207805 [kJ/mol]
    Exchange sSAPT0                30.40657571 [mEh]      19.08041432 [kcal/mol]      79.83245353 [kJ/mol]
    Induction sSAPT0              -32.16167783 [mEh]     -20.18175753 [kcal/mol]     -84.44047351 [kJ/mol]
    Dispersion sSAPT0              -2.42192568 [mEh]      -1.51978131 [kcal/mol]      -6.35876500 [kJ/mol]
  Total sSAPT0                   -136.89922397 [mEh]     -85.90556000 [kcal/mol]    -359.42886303 [kJ/mol]
  --------------------------------------------------------------------------------------------------------

*** Psi4 exiting successfully. Buy a developer a beer!
