                               Psi4 1.9 release

  ==> Input File <==

--------------------------------------------------------------------------
MEMORY 60 GB

molecule dimer {
1 1
Na     0.000000     0.000000     0.000000
--
0 1
O     -1.476289     1.000580    -1.680201
H     -1.347957     0.330310    -2.372440
H     -2.429876     1.119469    -1.591365
O      2.003211     0.161049    -1.174825
H      2.679153     0.338854    -0.470757
H      1.973185     0.976483    -1.680248
O     -0.163112     1.557536     1.551695
H      0.623683     2.047554     1.538014
H     -0.465897     1.324097     2.431350
O     -1.395492    -1.854519    -0.938929
H     -1.529696    -2.656867    -0.415875
H     -1.708751    -2.067533    -1.827479
O      1.140018    -1.255107     1.603180
H      2.012796    -1.642493     1.425109
H      1.148354    -1.258433     2.534760

units ang
no_reorient
no_com
symmetry c1
}

set {
basis        aug-cc-pVTZ
scf_type     df
}

energy("sapt2+")
--------------------------------------------------------------------------

  //              Dimer HF             //
    Molecular point group: c1
  Charge       = 1
  Multiplicity = 1
  Basis Set: AUG-CC-PVTZ
    Blend: AUG-CC-PVTZ
  Basis Set: (AUG-CC-PVTZ AUX)
    Blend: AUG-CC-PVTZ-JKFIT + DEF2-UNIVERSAL-JKFIT
  @DF-RHF Final Energy:  -542.08985788151233
    Total Energy =                       -542.0898578815123301
 Dipole X            :         -2.9309435            3.4424801            0.5115366
 Dipole Y            :          8.1896976           -8.7158837           -0.5261861
 Dipole Z            :         11.0911961          -10.4720515            0.6191446
 Magnitude           :                                                    0.9601467
  //            Monomer A HF           //
    Molecular point group: c1
  Multiplicity = 1
  Basis Set: AUG-CC-PVTZ
    Blend: AUG-CC-PVTZ
  Basis Set: (AUG-CC-PVTZ AUX)
    Blend: AUG-CC-PVTZ-JKFIT + DEF2-UNIVERSAL-JKFIT
  @DF-RHF Final Energy:  -161.67609269117676
    Total Energy =                       -161.6760926911767626
  //            Monomer B HF           //
    Molecular point group: c1

    Geometry (in Angstrom), charge = 0, multiplicity = 1:

       Center              X                  Y                   Z               Mass
    ------------   -----------------  -----------------  -----------------  -----------------
      Gh(NA)          0.000000000000     0.000000000000     0.000000000000    22.989769282000
         O           -1.476289000000     1.000580000000    -1.680201000000    15.994914619570
         H           -1.347957000000     0.330310000000    -2.372440000000     1.007825032230
         H           -2.429876000000     1.119469000000    -1.591365000000     1.007825032230
         O            2.003211000000     0.161049000000    -1.174825000000    15.994914619570
         H            2.679153000000     0.338854000000    -0.470757000000     1.007825032230
         H            1.973185000000     0.976483000000    -1.680248000000     1.007825032230
         O           -0.163112000000     1.557536000000     1.551695000000    15.994914619570
         H            0.623683000000     2.047554000000     1.538014000000     1.007825032230
         H           -0.465897000000     1.324097000000     2.431350000000     1.007825032230
         O           -1.395492000000    -1.854519000000    -0.938929000000    15.994914619570
         H           -1.529696000000    -2.656867000000    -0.415875000000     1.007825032230
         H           -1.708751000000    -2.067533000000    -1.827479000000     1.007825032230
         O            1.140018000000    -1.255107000000     1.603180000000    15.994914619570
         H            2.012796000000    -1.642493000000     1.425109000000     1.007825032230
         H            1.148354000000    -1.258433000000     2.534760000000     1.007825032230

  Charge       = 0
  Multiplicity = 1
  Basis Set: AUG-CC-PVTZ
    Blend: AUG-CC-PVTZ
  Basis Set: (AUG-CC-PVTZ AUX)
    Blend: AUG-CC-PVTZ-JKFIT + DEF2-UNIVERSAL-JKFIT

    Orbital Energies [Eh]
    ---------------------

    Doubly Occupied:

       1A    -20.546936     2A    -20.542600     3A    -20.541266
       4A    -20.527389     5A    -20.526101     6A     -1.339874
       7A     -1.323313     8A     -1.320852     9A     -1.315459
      10A     -1.305803    11A     -0.711095    12A     -0.692673
      13A     -0.692133    14A     -0.677523    15A     -0.673237
      16A     -0.571714    17A     -0.554136    18A     -0.551390
      19A     -0.540076    20A     -0.529992    21A     -0.495630
      22A     -0.484117    23A     -0.477664    24A     -0.469564
      25A     -0.464315

  @DF-RHF Final Energy:  -380.27360712713789

   => Energetics <=

    Nuclear Repulsion Energy =            186.7241904536423647
    One-Electron Energy =                -898.2458882941625689
    Two-Electron Energy =                 331.2480907133823393
    Total Energy =                       -380.2736071271378933
 Dipole X            :         -2.9979753            3.4424801            0.4445047
 Dipole Y            :          8.2209016           -8.7158837           -0.4949820
 Dipole Z            :         11.0885593          -10.4720515            0.6165078
 Magnitude           :                                                    0.9070135

    SAPT Results
  --------------------------------------------------------------------------------------------------------
    Electrostatics               -135.43761903 [mEh]     -84.98838904 [kcal/mol]    -355.59141976 [kJ/mol]
      Elst10,r                   -143.15790154 [mEh]     -89.83293946 [kcal/mol]    -375.86101870 [kJ/mol]
      Elst12,r                      7.72028251 [mEh]       4.84455042 [kcal/mol]      20.26959894 [kJ/mol]

    Exchange                       40.91676335 [mEh]      25.67565664 [kcal/mol]     107.42694736 [kJ/mol]
      Exch10                       36.74300467 [mEh]      23.05658353 [kcal/mol]      96.46874548 [kJ/mol]
      Exch10(S^2)                  36.68650079 [mEh]      23.02112680 [kcal/mol]      96.32039455 [kJ/mol]
      Exch11(S^2)                  -0.79639668 [mEh]      -0.49974646 [kcal/mol]      -2.09093918 [kJ/mol]
      Exch12(S^2)                   4.97015535 [mEh]       3.11881957 [kcal/mol]      13.04914107 [kJ/mol]

    Induction                     -39.12398102 [mEh]     -24.55066874 [kcal/mol]    -102.71999800 [kJ/mol]
      Ind20,r                     -68.47968261 [mEh]     -42.97164960 [kcal/mol]    -179.79338193 [kJ/mol]
      Ind22                       -10.19163349 [mEh]      -6.39534657 [kcal/mol]     -26.75813005 [kJ/mol]
      Exch-Ind20,r                 32.32488155 [mEh]      20.28416941 [kcal/mol]      84.86896480 [kJ/mol]
      Exch-Ind22                    4.81081881 [mEh]       3.01883438 [kcal/mol]      12.63080306 [kJ/mol]
      delta HF,r (2)                2.41163474 [mEh]       1.51332364 [kcal/mol]       6.33174613 [kJ/mol]

    Dispersion                     -3.26414285 [mEh]      -2.04828056 [kcal/mol]      -8.57000588 [kJ/mol]
      Disp20                       -3.27640114 [mEh]      -2.05597276 [kcal/mol]      -8.60219002 [kJ/mol]
      Disp21                       -0.09077076 [mEh]      -0.05695951 [kcal/mol]      -0.23831859 [kJ/mol]
      Disp22 (SDQ)                 -0.20675597 [mEh]      -0.12974133 [kcal/mol]      -0.54283774 [kJ/mol]
      Disp22 (T)                   -0.27795311 [mEh]      -0.17441821 [kcal/mol]      -0.72976578 [kJ/mol]
      Est. Disp22 (T)              -0.31882649 [mEh]      -0.20006664 [kcal/mol]      -0.83707884 [kJ/mol]
      Exch-Disp20                   0.62861152 [mEh]       0.39445968 [kcal/mol]       1.65041931 [kJ/mol]

  Total HF                       -140.15806320 [mEh]     -87.95051248 [kcal/mol]    -367.98494423 [kJ/mol]
  Total SAPT0                    -142.80585283 [mEh]     -89.61202556 [kcal/mol]    -374.93671494 [kJ/mol]
  Total SAPT2                    -136.29262632 [mEh]     -85.52491422 [kcal/mol]    -357.83624112 [kJ/mol]
  Total SAPT2+                   -136.90897955 [mEh]     -85.91168171 [kcal/mol]    -359.45447628 [kJ/mol]

  Special recipe for scaled SAPT0 (see Manual):
    Electrostatics sSAPT0        -143.15790154 [mEh]     -89.83293946 [kcal/mol]    -375.86101870 [kJ/mol]
    Exchange sSAPT0                36.74300467 [mEh]      23.05658353 [kcal/mol]      96.46874548 [kJ/mol]
    Induction sSAPT0              -33.59357758 [mEh]     -21.08028819 [kcal/mol]     -88.19992579 [kJ/mol]
    Dispersion sSAPT0              -2.64488063 [mEh]      -1.65968765 [kcal/mol]      -6.94413313 [kJ/mol]
  Total sSAPT0                   -142.65335507 [mEh]     -89.51633177 [kcal/mol]    -374.53633214 [kJ/mol]
  --------------------------------------------------------------------------------------------------------

*** Psi4 exiting successfully. Buy a developer a beer!
