                               Psi4 1.9 release

  ==> Input File <==

--------------------------------------------------------------------------
MEMORY 60 GB

molecule dimer {
1 1
Na     0.000000     0.000000     0.000000
--
0 1
O      1.953031     0.831091     0.860219
H      2.066769     1.791772     0.968498
H      2.719642     0.442245     0.453626
O      0.997390    -1.806691    -0.823923
H      0.719927    -2.694832    -0.590439
H      1.062663    -1.693952    -1.760597
O     -2.359813    -0.522401    -0.218748
H     -3.107352    -1.043213     0.090344
H     -2.840960     0.185888    -0.550284
O     -1.307455     1.999734     0.923894
H     -2.152987     2.044750     1.490236
H     -1.483833     2.732670     0.295877
O     -0.718067     0.947143    -2.169991
H     -1.389460     1.635350    -2.029136
H      0.120162     1.348159    -2.406870
O     -0.441223    -1.492378     2.010603
H      0.380909    -1.895708     2.175635
H     -0.383827    -0.728813     2.596321

units ang
no_reorient
no_com
symmetry c1
}

set {
basis        aug-cc-pVTZ
scf_type     df
}

energy("sapt2+")
--------------------------------------------------------------------------

  //              Dimer HF             //
    Molecular point group: c1
  Charge       = 1
  Multiplicity = 1
  Basis Set: AUG-CC-PVTZ
    Blend: AUG-CC-PVTZ
  Basis Set: (AUG-CC-PVTZ AUX)
    Blend: AUG-CC-PVTZ-JKFIT + DEF2-UNIVERSAL-JKFIT
  @DF-RHF Final Energy:  -618.14860032583726
    Total Energy =                       -618.1486003258372648
 Dipole X            :         36.0612220          -36.4668822           -0.4056602
 Dipole Y            :         -1.9701923            3.3567205            1.3865282
 Dipole Z            :        -10.4558646           10.1849492           -0.2709154
 Magnitude           :                                                    1.4698353
  //            Monomer A HF           //
    Molecular point group: c1
  Multiplicity = 1
  Basis Set: AUG-CC-PVTZ
    Blend: AUG-CC-PVTZ
  Basis Set: (AUG-CC-PVTZ AUX)
    Blend: AUG-CC-PVTZ-JKFIT + DEF2-UNIVERSAL-JKFIT
  @DF-RHF Final Energy:  -161.67609697073914
    Total Energy =                       -161.6760969707391382
  //            Monomer B HF           //
    Molecular point group: c1

    Geometry (in Angstrom), charge = 0, multiplicity = 1:

       Center              X                  Y                   Z               Mass
    ------------   -----------------  -----------------  -----------------  -----------------
      Gh(NA)          0.000000000000     0.000000000000     0.000000000000    22.989769282000
         O            1.953031000000     0.831091000000     0.860219000000    15.994914619570
         H            2.066769000000     1.791772000000     0.968498000000     1.007825032230
         H            2.719642000000     0.442245000000     0.453626000000     1.007825032230
         O            0.997390000000    -1.806691000000    -0.823923000000    15.994914619570
         H            0.719927000000    -2.694832000000    -0.590439000000     1.007825032230
         H            1.062663000000    -1.693952000000    -1.760597000000     1.007825032230
         O           -2.359813000000    -0.522401000000    -0.218748000000    15.994914619570
         H           -3.107352000000    -1.043213000000     0.090344000000     1.007825032230
         H           -2.840960000000     0.185888000000    -0.550284000000     1.007825032230
         O           -1.307455000000     1.999734000000     0.923894000000    15.994914619570
         H           -2.152987000000     2.044750000000     1.490236000000     1.007825032230
         H           -1.483833000000     2.732670000000     0.295877000000     1.007825032230
         O           -0.718067000000     0.947143000000    -2.169991000000    15.994914619570
         H           -1.389460000000     1.635350000000    -2.029136000000     1.007825032230
         H            0.120162000000     1.348159000000    -2.406870000000     1.007825032230
         O           -0.441223000000    -1.492378000000     2.010603000000    15.994914619570
         H            0.380909000000    -1.895708000000     2.175635000000     1.007825032230
         H           -0.383827000000    -0.728813000000     2.596321000000     1.007825032230

  Charge       = 0
  Multiplicity = 1
  Basis Set: AUG-CC-PVTZ
    Blend: AUG-CC-PVTZ
  Basis Set: (AUG-CC-PVTZ AUX)
    Blend: AUG-CC-PVTZ-JKFIT + DEF2-UNIVERSAL-JKFIT

    Orbital Energies [Eh]
    ---------------------

    Doubly Occupied:

       1A    -20.561410     2A    -20.542974     3A    -20.534039
       4A    -20.521746     5A    -20.520787     6A    -20.515949
       7A     -1.326608     8A     -1.321756     9A     -1.320253
      10A     -1.315673    11A     -1.312106    12A     -1.309589
      13A     -0.704373    14A     -0.695675    15A     -0.693919
      16A     -0.673085    17A     -0.667065    18A     -0.664415
      19A     -0.569322    20A     -0.558244    21A     -0.547142
      22A     -0.541285    23A     -0.538411    24A     -0.527801
      25A     -0.498382    26A     -0.483050    27A     -0.475511
      28A     -0.467636    29A     -0.462678    30A     -0.457364

  @DF-RHF Final Energy:  -456.32073325869328

   => Energetics <=

    Nuclear Repulsion Energy =            269.5283057065292383
    One-Electron Energy =               -1169.0415744519143573
    Two-Electron Energy =                 443.1925354866918951
    Total Energy =                       -456.3207332586932807
 Dipole X            :         36.2200910          -36.4668822           -0.2467912
 Dipole Y            :         -1.9834055            3.3567205            1.3733151
 Dipole Z            :        -10.4917218           10.1849492           -0.3067726
 Magnitude           :                                                    1.4286391

    SAPT Results
  --------------------------------------------------------------------------------------------------------
    Electrostatics               -142.04368625 [mEh]     -89.13375881 [kcal/mol]    -372.93564687 [kJ/mol]
      Elst10,r                   -150.38425191 [mEh]     -94.36754278 [kcal/mol]    -394.83379899 [kJ/mol]
      Elst12,r                      8.34056566 [mEh]       5.23378397 [kcal/mol]      21.89815212 [kJ/mol]

    Exchange                       40.14538645 [mEh]      25.19161032 [kcal/mol]     105.40169759 [kJ/mol]
      Exch10                       35.77543566 [mEh]      22.44942480 [kcal/mol]      93.92839338 [kJ/mol]
      Exch10(S^2)                  35.72676582 [mEh]      22.41888402 [kcal/mol]      93.80061074 [kJ/mol]
      Exch11(S^2)                  -0.86213070 [mEh]      -0.54099518 [kcal/mol]      -2.26352385 [kJ/mol]
      Exch12(S^2)                   5.23208149 [mEh]       3.28318070 [kcal/mol]      13.73682806 [kJ/mol]

    Induction                     -43.29553252 [mEh]     -27.16835683 [kcal/mol]    -113.67240496 [kJ/mol]
      Ind20,r                     -70.43676005 [mEh]     -44.19973424 [kcal/mol]    -184.93168804 [kJ/mol]
      Ind22                       -11.00778586 [mEh]      -6.90748991 [kcal/mol]     -28.90093779 [kJ/mol]
      Exch-Ind20,r                 31.18482807 [mEh]      19.56877505 [kcal/mol]      81.87575483 [kJ/mol]
      Exch-Ind22                    4.87353350 [mEh]       3.05818844 [kcal/mol]      12.79546043 [kJ/mol]
      delta HF,r (2)                2.09065182 [mEh]       1.31190383 [kcal/mol]       5.48900561 [kJ/mol]

    Dispersion                     -3.66857555 [mEh]      -2.30206591 [kcal/mol]      -9.63184377 [kJ/mol]
      Disp20                       -3.63482250 [mEh]      -2.28088555 [kcal/mol]      -9.54322515 [kJ/mol]
      Disp21                       -0.08264878 [mEh]      -0.05186289 [kcal/mol]      -0.21699433 [kJ/mol]
      Disp22 (SDQ)                 -0.24260919 [mEh]      -0.15223956 [kcal/mol]      -0.63697034 [kJ/mol]
      Disp22 (T)                   -0.32396880 [mEh]      -0.20329349 [kcal/mol]      -0.85057997 [kJ/mol]
      Est. Disp22 (T)              -0.36572046 [mEh]      -0.22949305 [kcal/mol]      -0.96019893 [kJ/mol]
      Exch-Disp20                   0.65722537 [mEh]       0.41241515 [kcal/mol]       1.72554497 [kJ/mol]

  Total HF                       -151.77009640 [mEh]     -95.23717333 [kcal/mol]    -398.47233321 [kJ/mol]
  Total SAPT0                    -154.74769353 [mEh]     -97.10564374 [kcal/mol]    -406.29001339 [kJ/mol]
  Total SAPT2                    -148.17142945 [mEh]     -92.97897572 [kcal/mol]    -389.02403442 [kJ/mol]
  Total SAPT2+                   -148.86240787 [mEh]     -93.41257123 [kcal/mol]    -390.83819802 [kJ/mol]

  Special recipe for scaled SAPT0 (see Manual):
    Electrostatics sSAPT0        -150.38425191 [mEh]     -94.36754278 [kcal/mol]    -394.83379899 [kJ/mol]
    Exchange sSAPT0                35.77543566 [mEh]      22.44942480 [kcal/mol]      93.92839338 [kJ/mol]
    Induction sSAPT0              -37.03365911 [mEh]     -23.23897194 [kcal/mol]     -97.23185860 [kJ/mol]
    Dispersion sSAPT0              -2.97490749 [mEh]      -1.86678263 [kcal/mol]      -7.81061854 [kJ/mol]
  Total sSAPT0                   -154.61738285 [mEh]     -97.02387255 [kcal/mol]    -405.94788275 [kJ/mol]
  --------------------------------------------------------------------------------------------------------

*** Psi4 exiting successfully. Buy a developer a beer!
