                               Psi4 1.9 release

  ==> Input File <==

--------------------------------------------------------------------------
MEMORY 60 GB

molecule dimer {
1 1
Na     0.000000     0.000000     0.000000
--
0 1
O     -0.176977     1.686618    -2.008264
H     -0.632707     2.516626    -2.104365
H      0.159539     1.416134    -2.919306
O      1.634007    -0.997109    -1.357904
H      1.486035    -0.968361    -2.307521
H      1.460201    -1.819247    -0.910788
O      1.120484    -0.081834     2.153587
H      1.506776     0.791182     2.044304
H      0.522102    -0.043865     2.978173
O     -1.063075    -1.858798     0.142341
H     -1.368323    -2.410910     0.865620
H     -1.298628    -2.180823    -0.693113
O     -0.084576     2.215043     0.683941
H     -0.140511     2.320130     1.634745
H      0.316926     3.119409     0.463861

units ang
no_reorient
no_com
symmetry c1
}

set {
basis        aug-cc-pVTZ
scf_type     df
}

energy("sapt2+")
--------------------------------------------------------------------------

  //              Dimer HF             //
    Molecular point group: c1
  Charge       = 1
  Multiplicity = 1
  Basis Set: AUG-CC-PVTZ
    Blend: AUG-CC-PVTZ
  Basis Set: (AUG-CC-PVTZ AUX)
    Blend: AUG-CC-PVTZ-JKFIT + DEF2-UNIVERSAL-JKFIT
  @DF-RHF Final Energy:  -542.06984336143842
    Total Energy =                       -542.0698433614384157
 Dipole X            :        -25.9372654           25.4174098           -0.5198556
 Dipole Y            :        -19.2335739           19.7507277            0.5171538
 Dipole Z            :          7.4839732           -7.6321919           -0.1482186
 Magnitude           :                                                    0.7481087
  //            Monomer A HF           //
    Molecular point group: c1
  Multiplicity = 1
  Basis Set: AUG-CC-PVTZ
    Blend: AUG-CC-PVTZ
  Basis Set: (AUG-CC-PVTZ AUX)
    Blend: AUG-CC-PVTZ-JKFIT + DEF2-UNIVERSAL-JKFIT
  @DF-RHF Final Energy:  -161.67609243185106
    Total Energy =                       -161.6760924318510604
  //            Monomer B HF           //
    Molecular point group: c1

    Geometry (in Angstrom), charge = 0, multiplicity = 1:

       Center              X                  Y                   Z               Mass
    ------------   -----------------  -----------------  -----------------  -----------------
      Gh(NA)          0.000000000000     0.000000000000     0.000000000000    22.989769282000
         O           -0.176977000000     1.686618000000    -2.008264000000    15.994914619570
         H           -0.632707000000     2.516626000000    -2.104365000000     1.007825032230
         H            0.159539000000     1.416134000000    -2.919306000000     1.007825032230
         O            1.634007000000    -0.997109000000    -1.357904000000    15.994914619570
         H            1.486035000000    -0.968361000000    -2.307521000000     1.007825032230
         H            1.460201000000    -1.819247000000    -0.910788000000     1.007825032230
         O            1.120484000000    -0.081834000000     2.153587000000    15.994914619570
         H            1.506776000000     0.791182000000     2.044304000000     1.007825032230
         H            0.522102000000    -0.043865000000     2.978173000000     1.007825032230
         O           -1.063075000000    -1.858798000000     0.142341000000    15.994914619570
         H           -1.368323000000    -2.410910000000     0.865620000000     1.007825032230
         H           -1.298628000000    -2.180823000000    -0.693113000000     1.007825032230
         O           -0.084576000000     2.215043000000     0.683941000000    15.994914619570
         H           -0.140511000000     2.320130000000     1.634745000000     1.007825032230
         H            0.316926000000     3.119409000000     0.463861000000     1.007825032230

  Charge       = 0
  Multiplicity = 1
  Basis Set: AUG-CC-PVTZ
    Blend: AUG-CC-PVTZ
  Basis Set: (AUG-CC-PVTZ AUX)
    Blend: AUG-CC-PVTZ-JKFIT + DEF2-UNIVERSAL-JKFIT

    Orbital Energies [Eh]
    ---------------------

    Doubly Occupied:

       1A    -20.551907     2A    -20.543739     3A    -20.540278
       4A    -20.538181     5A    -20.522806     6A     -1.333194
       7A     -1.323984     8A     -1.314530     9A     -1.307278
      10A     -1.305174    11A     -0.720986    12A     -0.704327
      13A     -0.687928    14A     -0.676350    15A     -0.665914
      16A     -0.571973    17A     -0.547430    18A     -0.540836
      19A     -0.537225    20A     -0.521297    21A     -0.492316
      22A     -0.487372    23A     -0.480798    24A     -0.469564
      25A     -0.465983

  @DF-RHF Final Energy:  -380.26006737556770

   => Energetics <=

    Nuclear Repulsion Energy =            188.3715830142300547
    One-Electron Energy =                -901.5605522169723827
    Two-Electron Energy =                 332.9289018271746272
    Total Energy =                       -380.2600673755677008
 Dipole X            :        -26.0561424           25.4174098           -0.6387327
 Dipole Y            :        -19.3056179           19.7507277            0.4451098
 Dipole Z            :          7.4930087           -7.6321919           -0.1391831
 Magnitude           :                                                    0.7908692

    SAPT Results
  --------------------------------------------------------------------------------------------------------
    Electrostatics               -130.03456506 [mEh]     -81.59792150 [kcal/mol]    -341.40570354 [kJ/mol]
      Elst10,r                   -137.83296234 [mEh]     -86.49148967 [kcal/mol]    -361.88039276 [kJ/mol]
      Elst12,r                      7.79839727 [mEh]       4.89356817 [kcal/mol]      20.47468922 [kJ/mol]

    Exchange                       42.21479502 [mEh]      26.49018381 [kcal/mol]     110.83492905 [kJ/mol]
      Exch10                       38.09700959 [mEh]      23.90623444 [kcal/mol]     100.02368489 [kJ/mol]
      Exch10(S^2)                  38.02815649 [mEh]      23.86302847 [kcal/mol]      99.84291112 [kJ/mol]
      Exch11(S^2)                  -0.81302358 [mEh]      -0.51018000 [kcal/mol]      -2.13459311 [kJ/mol]
      Exch12(S^2)                   4.93080901 [mEh]       3.09412937 [kcal/mol]      12.94583726 [kJ/mol]

    Induction                     -39.29608055 [mEh]     -24.65866282 [kcal/mol]    -103.17184526 [kJ/mol]
      Ind20,r                     -69.47177038 [mEh]     -43.59419407 [kcal/mol]    -182.39810800 [kJ/mol]
      Ind22                       -10.22520564 [mEh]      -6.41641341 [kcal/mol]     -26.84627370 [kJ/mol]
      Exch-Ind20,r                 33.13330077 [mEh]      20.79146013 [kcal/mol]      86.99146919 [kJ/mol]
      Exch-Ind22                    4.87672636 [mEh]       3.06019199 [kcal/mol]      12.80384329 [kJ/mol]
      delta HF,r (2)                2.39086834 [mEh]       1.50029253 [kcal/mol]       6.27722396 [kJ/mol]

    Dispersion                     -3.31706202 [mEh]      -2.08148784 [kcal/mol]      -8.70894514 [kJ/mol]
      Disp20                       -3.35577115 [mEh]      -2.10577819 [kcal/mol]      -8.81057595 [kJ/mol]
      Disp21                       -0.07845390 [mEh]      -0.04923056 [kcal/mol]      -0.20598068 [kJ/mol]
      Disp22 (SDQ)                 -0.20899620 [mEh]      -0.13114710 [kcal/mol]      -0.54871946 [kJ/mol]
      Disp22 (T)                   -0.28511070 [mEh]      -0.17890967 [kcal/mol]      -0.74855805 [kJ/mol]
      Est. Disp22 (T)              -0.32539403 [mEh]      -0.20418783 [kcal/mol]      -0.85432190 [kJ/mol]
      Exch-Disp20                   0.65155326 [mEh]       0.40885584 [kcal/mol]       1.71065284 [kJ/mol]

  Total HF                       -133.68355402 [mEh]     -83.88769664 [kcal/mol]    -350.98612272 [kJ/mol]
  Total SAPT0                    -136.38777192 [mEh]     -85.58461899 [kcal/mol]    -358.08604584 [kJ/mol]
  Total SAPT2                    -129.82006849 [mEh]     -81.46332287 [kcal/mol]    -340.84254287 [kJ/mol]
  Total SAPT2+                   -130.43291262 [mEh]     -81.84788836 [kcal/mol]    -342.45156490 [kJ/mol]

  Special recipe for scaled SAPT0 (see Manual):
    Electrostatics sSAPT0        -137.83296234 [mEh]     -86.49148967 [kcal/mol]    -361.88039276 [kJ/mol]
    Exchange sSAPT0                38.09700959 [mEh]      23.90623444 [kcal/mol]     100.02368489 [kJ/mol]
    Induction sSAPT0              -33.76730355 [mEh]     -21.18930288 [kcal/mol]     -88.65604326 [kJ/mol]
    Dispersion sSAPT0              -2.70067241 [mEh]      -1.69469753 [kcal/mol]      -7.09061445 [kJ/mol]
  Total sSAPT0                   -136.20392872 [mEh]     -85.46925564 [kcal/mol]    -357.60336559 [kJ/mol]
  --------------------------------------------------------------------------------------------------------

*** Psi4 exiting successfully. Buy a developer a beer!
