                               Psi4 1.9 release

  ==> Input File <==

--------------------------------------------------------------------------
MEMORY 60 GB

molecule dimer {
1 1
Na     0.000000     0.000000     0.000000
--
0 1
O     -0.385609     0.971783     2.130412
H      0.171738     1.741781     2.032620
H      0.110888     0.513405     2.845892
O      1.650679    -1.448679     0.973540
H      2.407191    -1.477866     0.372562
H      2.005735    -1.634422     1.882786
O      1.370942     1.688736    -1.335288
H      1.905338     1.353027    -2.042046
H      2.089085     2.118485    -0.854267
O     -0.901623    -0.275276    -2.159721
H     -0.471246    -1.081532    -2.486808
H     -0.652592     0.403088    -2.864428

units ang
no_reorient
no_com
symmetry c1
}

set {
basis        aug-cc-pVTZ
scf_type     df
}

energy("sapt2+")
--------------------------------------------------------------------------

  //              Dimer HF             //
    Molecular point group: c1
  Charge       = 1
  Multiplicity = 1
  Basis Set: AUG-CC-PVTZ
    Blend: AUG-CC-PVTZ
  Basis Set: (AUG-CC-PVTZ AUX)
    Blend: AUG-CC-PVTZ-JKFIT + DEF2-UNIVERSAL-JKFIT
  @DF-RHF Final Energy:  -466.00569560592214
    Total Energy =                       -466.0056956059221420
 Dipole X            :        -37.6265550           40.5180884            2.8915334
 Dipole Y            :        -17.7024376           17.8172412            0.1148036
 Dipole Z            :          7.7770241           -8.0164922           -0.2394681
 Magnitude           :                                                    2.9037028
  //            Monomer A HF           //
    Molecular point group: c1
  Multiplicity = 1
  Basis Set: AUG-CC-PVTZ
    Blend: AUG-CC-PVTZ
  Basis Set: (AUG-CC-PVTZ AUX)
    Blend: AUG-CC-PVTZ-JKFIT + DEF2-UNIVERSAL-JKFIT
  @DF-RHF Final Energy:  -161.67608270789279
    Total Energy =                       -161.6760827078928173
  //            Monomer B HF           //
    Molecular point group: c1

    Geometry (in Angstrom), charge = 0, multiplicity = 1:

       Center              X                  Y                   Z               Mass
    ------------   -----------------  -----------------  -----------------  -----------------
      Gh(NA)          0.000000000000     0.000000000000     0.000000000000    22.989769282000
         O           -0.385609000000     0.971783000000     2.130412000000    15.994914619570
         H            0.171738000000     1.741781000000     2.032620000000     1.007825032230
         H            0.110888000000     0.513405000000     2.845892000000     1.007825032230
         O            1.650679000000    -1.448679000000     0.973540000000    15.994914619570
         H            2.407191000000    -1.477866000000     0.372562000000     1.007825032230
         H            2.005735000000    -1.634422000000     1.882786000000     1.007825032230
         O            1.370942000000     1.688736000000    -1.335288000000    15.994914619570
         H            1.905338000000     1.353027000000    -2.042046000000     1.007825032230
         H            2.089085000000     2.118485000000    -0.854267000000     1.007825032230
         O           -0.901623000000    -0.275276000000    -2.159721000000    15.994914619570
         H           -0.471246000000    -1.081532000000    -2.486808000000     1.007825032230
         H           -0.652592000000     0.403088000000    -2.864428000000     1.007825032230

  Charge       = 0
  Multiplicity = 1
  Basis Set: AUG-CC-PVTZ
    Blend: AUG-CC-PVTZ
  Basis Set: (AUG-CC-PVTZ AUX)
    Blend: AUG-CC-PVTZ-JKFIT + DEF2-UNIVERSAL-JKFIT

    Orbital Energies [Eh]
    ---------------------

    Doubly Occupied:

       1A    -20.564950     2A    -20.563140     3A    -20.547173
       4A    -20.545188     5A     -1.355395     6A     -1.333896
       7A     -1.324736     8A     -1.312658     9A     -0.702548
      10A     -0.697434    11A     -0.673736    12A     -0.669823
      13A     -0.594627    14A     -0.567729    15A     -0.565840
      16A     -0.554989    17A     -0.508537    18A     -0.500885
      19A     -0.481804    20A     -0.480187

  @DF-RHF Final Energy:  -304.21748893912849

   => Energetics <=

    Nuclear Repulsion Energy =            117.9622637804174730
    One-Electron Energy =                -655.2689501140738457
    Two-Electron Energy =                 233.0891973945278437
    Total Energy =                       -304.2174889391284864
 Dipole X            :        -37.9303264           40.5180884            2.5877620
 Dipole Y            :        -17.7885382           17.8172412            0.0287030
 Dipole Z            :          7.8034249           -8.0164922           -0.2130674
 Magnitude           :                                                    2.5966774

    SAPT Results
  --------------------------------------------------------------------------------------------------------
    Electrostatics               -104.33778536 [mEh]     -65.47294878 [kcal/mol]    -273.93881771 [kJ/mol]
      Elst10,r                   -109.51334204 [mEh]     -68.72065963 [kcal/mol]    -287.52723991 [kJ/mol]
      Elst12,r                      5.17555668 [mEh]       3.24771085 [kcal/mol]      13.58842220 [kJ/mol]

    Exchange                       27.34291146 [mEh]      17.15793598 [kcal/mol]      71.78880414 [kJ/mol]
      Exch10                       24.17017999 [mEh]      15.16701692 [kcal/mol]      63.45879881 [kJ/mol]
      Exch10(S^2)                  24.14565185 [mEh]      15.15162528 [kcal/mol]      63.39440019 [kJ/mol]
      Exch11(S^2)                  -0.42287570 [mEh]      -0.26535851 [kcal/mol]      -1.11026000 [kJ/mol]
      Exch12(S^2)                   3.59560717 [mEh]       2.25627756 [kcal/mol]       9.44026532 [kJ/mol]

    Induction                     -31.06953604 [mEh]     -19.49642821 [kcal/mol]     -81.57305565 [kJ/mol]
      Ind20,r                     -52.09715804 [mEh]     -32.69146023 [kcal/mol]    -136.78106958 [kJ/mol]
      Ind22                        -7.76364103 [mEh]      -4.87175830 [kcal/mol]     -20.38343672 [kJ/mol]
      Exch-Ind20,r                 23.31799080 [mEh]      14.63226014 [kcal/mol]      61.22137642 [kJ/mol]
      Exch-Ind22                    3.47490184 [mEh]       2.18053382 [kcal/mol]       9.12335351 [kJ/mol]
      delta HF,r (2)                1.99837039 [mEh]       1.25399635 [kcal/mol]       5.24672072 [kJ/mol]

    Dispersion                     -2.16374887 [mEh]      -1.35777291 [kcal/mol]      -5.68092187 [kJ/mol]
      Disp20                       -2.10451784 [mEh]      -1.32060488 [kcal/mol]      -5.52541082 [kJ/mol]
      Disp21                       -0.08661205 [mEh]      -0.05434988 [kcal/mol]      -0.22739991 [kJ/mol]
      Disp22 (SDQ)                 -0.13352579 [mEh]      -0.08378870 [kcal/mol]      -0.35057191 [kJ/mol]
      Disp22 (T)                   -0.17607704 [mEh]      -0.11049001 [kcal/mol]      -0.46229022 [kJ/mol]
      Est. Disp22 (T)              -0.20636746 [mEh]      -0.12949754 [kcal/mol]      -0.54181770 [kJ/mol]
      Exch-Disp20                   0.36727427 [mEh]       0.23046808 [kcal/mol]       0.96427846 [kJ/mol]

  Total HF                       -112.12395890 [mEh]     -70.35884645 [kcal/mol]    -294.38141354 [kJ/mol]
  Total SAPT0                    -113.86120247 [mEh]     -71.44898325 [kcal/mol]    -298.94254590 [kJ/mol]
  Total SAPT2                    -109.80165351 [mEh]     -68.90157782 [kcal/mol]    -288.28420158 [kJ/mol]
  Total SAPT2+                   -110.22815881 [mEh]     -69.16921393 [kcal/mol]    -289.40399109 [kJ/mol]

  Special recipe for scaled SAPT0 (see Manual):
    Electrostatics sSAPT0        -109.51334204 [mEh]     -68.72065963 [kcal/mol]    -287.52723991 [kJ/mol]
    Exchange sSAPT0                24.17017999 [mEh]      15.16701692 [kcal/mol]      63.45879881 [kJ/mol]
    Induction sSAPT0              -26.70966253 [mEh]     -16.76056628 [kcal/mol]     -70.12620931 [kJ/mol]
    Dispersion sSAPT0              -1.73612315 [mEh]      -1.08943373 [kcal/mol]      -4.55819071 [kJ/mol]
  Total sSAPT0                   -113.78894774 [mEh]     -71.40364272 [kcal/mol]    -298.75284112 [kJ/mol]
  --------------------------------------------------------------------------------------------------------

*** Psi4 exiting successfully. Buy a developer a beer!
