                               Psi4 1.9 release

  ==> Input File <==

--------------------------------------------------------------------------
MEMORY 60 GB

molecule dimer {
1 1
Na     0.000000     0.000000     0.000000
--
0 1
O      1.626028     1.034922     1.580623
H      1.378579     0.724001     2.502033
H      2.064630     1.955065     1.635979
O     -1.372352    -2.180406    -0.667887
H     -1.156517    -2.493550     0.245784
H     -1.510414    -2.963832    -1.183852
O     -1.339998     1.807402     0.199177
H     -1.582903     2.201952    -0.688290
H     -1.288117     2.504336     0.887083
O     -1.123329    -0.697031     2.020695
H     -0.556554    -0.315841     2.727097
H     -1.512463    -1.540032     2.286606
O     -0.325095     0.344770    -2.289885
H     -0.904628    -0.206831    -2.834921
H      0.583007     0.391315    -2.704986

units ang
no_reorient
no_com
symmetry c1
}

set {
basis        aug-cc-pVTZ
scf_type     df
}

energy("sapt2+")
--------------------------------------------------------------------------

  //              Dimer HF             //
    Molecular point group: c1
  Charge       = 1
  Multiplicity = 1
  Basis Set: AUG-CC-PVTZ
    Blend: AUG-CC-PVTZ
  Basis Set: (AUG-CC-PVTZ AUX)
    Blend: AUG-CC-PVTZ-JKFIT + DEF2-UNIVERSAL-JKFIT
  @DF-RHF Final Energy:  -542.06754959854470
    Total Energy =                       -542.0675495985447014
 Dipole X            :         46.9472656          -46.7959457            0.1513199
 Dipole Y            :         -5.3154319            5.1662070           -0.1492249
 Dipole Z            :        -17.3779364           18.1684260            0.7904896
 Magnitude           :                                                    0.8185595
  //            Monomer A HF           //
    Molecular point group: c1
  Multiplicity = 1
  Basis Set: AUG-CC-PVTZ
    Blend: AUG-CC-PVTZ
  Basis Set: (AUG-CC-PVTZ AUX)
    Blend: AUG-CC-PVTZ-JKFIT + DEF2-UNIVERSAL-JKFIT
  @DF-RHF Final Energy:  -161.67608988653879
    Total Energy =                       -161.6760898865387901
  //            Monomer B HF           //
    Molecular point group: c1

    Geometry (in Angstrom), charge = 0, multiplicity = 1:

       Center              X                  Y                   Z               Mass
    ------------   -----------------  -----------------  -----------------  -----------------
      Gh(NA)          0.000000000000     0.000000000000     0.000000000000    22.989769282000
         O            1.626028000000     1.034922000000     1.580623000000    15.994914619570
         H            1.378579000000     0.724001000000     2.502033000000     1.007825032230
         H            2.064630000000     1.955065000000     1.635979000000     1.007825032230
         O           -1.372352000000    -2.180406000000    -0.667887000000    15.994914619570
         H           -1.156517000000    -2.493550000000     0.245784000000     1.007825032230
         H           -1.510414000000    -2.963832000000    -1.183852000000     1.007825032230
         O           -1.339998000000     1.807402000000     0.199177000000    15.994914619570
         H           -1.582903000000     2.201952000000    -0.688290000000     1.007825032230
         H           -1.288117000000     2.504336000000     0.887083000000     1.007825032230
         O           -1.123329000000    -0.697031000000     2.020695000000    15.994914619570
         H           -0.556554000000    -0.315841000000     2.727097000000     1.007825032230
         H           -1.512463000000    -1.540032000000     2.286606000000     1.007825032230
         O           -0.325095000000     0.344770000000    -2.289885000000    15.994914619570
         H           -0.904628000000    -0.206831000000    -2.834921000000     1.007825032230
         H            0.583007000000     0.391315000000    -2.704986000000     1.007825032230

  Charge       = 0
  Multiplicity = 1
  Basis Set: AUG-CC-PVTZ
    Blend: AUG-CC-PVTZ
  Basis Set: (AUG-CC-PVTZ AUX)
    Blend: AUG-CC-PVTZ-JKFIT + DEF2-UNIVERSAL-JKFIT

    Orbital Energies [Eh]
    ---------------------

    Doubly Occupied:

       1A    -20.560801     2A    -20.550226     3A    -20.541170
       4A    -20.533824     5A    -20.519899     6A     -1.325113
       7A     -1.319258     8A     -1.310472     9A     -1.301975
      10A     -1.282892    11A     -0.711834    12A     -0.686439
      13A     -0.680917    14A     -0.677512    15A     -0.661319
      16A     -0.554281    17A     -0.549858    18A     -0.545277
      19A     -0.533720    20A     -0.510758    21A     -0.491896
      22A     -0.488183    23A     -0.482724    24A     -0.468205
      25A     -0.453476

  @DF-RHF Final Energy:  -380.25480084747437

   => Energetics <=

    Nuclear Repulsion Energy =            186.7152404951237088
    One-Electron Energy =                -898.4560156254806316
    Two-Electron Energy =                 331.4859742828825802
    Total Energy =                       -380.2548008474743710
 Dipole X            :         47.1987680          -46.7959457            0.4028224
 Dipole Y            :         -5.4273293            5.1662070           -0.2611223
 Dipole Z            :        -17.4744170           18.1684260            0.6940090
 Magnitude           :                                                    0.8438597

    SAPT Results
  --------------------------------------------------------------------------------------------------------
    Electrostatics               -124.30649567 [mEh]     -78.00350368 [kcal/mol]    -326.36665941 [kJ/mol]
      Elst10,r                   -132.51735354 [mEh]     -83.15589479 [kcal/mol]    -347.92426378 [kJ/mol]
      Elst12,r                      8.21085787 [mEh]       5.15239110 [kcal/mol]      21.55760438 [kJ/mol]

    Exchange                       31.43659393 [mEh]      19.72676052 [kcal/mol]      82.53676600 [kJ/mol]
      Exch10                       28.07888977 [mEh]      17.61976934 [kcal/mol]      73.72111492 [kJ/mol]
      Exch10(S^2)                  28.03418548 [mEh]      17.59171698 [kcal/mol]      73.60374384 [kJ/mol]
      Exch11(S^2)                  -0.56580536 [mEh]      -0.35504822 [kcal/mol]      -1.48552177 [kJ/mol]
      Exch12(S^2)                   3.92350953 [mEh]       2.46203940 [kcal/mol]      10.30117284 [kJ/mol]

    Induction                     -37.25118180 [mEh]     -23.37546949 [kcal/mol]     -97.80296433 [kJ/mol]
      Ind20,r                     -59.36602965 [mEh]     -37.25274603 [kcal/mol]    -155.86548937 [kJ/mol]
      Ind22                        -8.75945114 [mEh]      -5.49663858 [kcal/mol]     -22.99793581 [kJ/mol]
      Exch-Ind20,r                 25.27057190 [mEh]      15.85752327 [kcal/mol]      66.34787738 [kJ/mol]
      Exch-Ind22                    3.72867010 [mEh]       2.33977581 [kcal/mol]       9.78962201 [kJ/mol]
      delta HF,r (2)                1.87505699 [mEh]       1.17661603 [kcal/mol]       4.92296146 [kJ/mol]

    Dispersion                     -2.85023120 [mEh]      -1.78854708 [kcal/mol]      -7.48328099 [kJ/mol]
      Disp20                       -2.79624363 [mEh]      -1.75466937 [kcal/mol]      -7.34153663 [kJ/mol]
      Disp21                       -0.06697350 [mEh]      -0.04202651 [kcal/mol]      -0.17583890 [kJ/mol]
      Disp22 (SDQ)                 -0.17843519 [mEh]      -0.11196977 [kcal/mol]      -0.46848152 [kJ/mol]
      Disp22 (T)                   -0.24088454 [mEh]      -0.15115733 [kcal/mol]      -0.63244228 [kJ/mol]
      Est. Disp22 (T)              -0.27544104 [mEh]      -0.17284186 [kcal/mol]      -0.72317036 [kJ/mol]
      Exch-Disp20                   0.46686215 [mEh]       0.29296042 [kcal/mol]       1.22574642 [kJ/mol]

  Total HF                       -136.65886453 [mEh]     -85.75473217 [kcal/mol]    -358.79779940 [kJ/mol]
  Total SAPT0                    -138.98824600 [mEh]     -87.21644111 [kcal/mol]    -364.91358961 [kJ/mol]
  Total SAPT2                    -132.45046500 [mEh]     -83.11392159 [kcal/mol]    -347.74864795 [kJ/mol]
  Total SAPT2+                   -132.97131473 [mEh]     -83.44075973 [kcal/mol]    -349.11613873 [kJ/mol]

  Special recipe for scaled SAPT0 (see Manual):
    Electrostatics sSAPT0        -132.51735354 [mEh]     -83.15589479 [kcal/mol]    -347.92426378 [kJ/mol]
    Exchange sSAPT0                28.07888977 [mEh]      17.61976934 [kcal/mol]      73.72111492 [kJ/mol]
    Induction sSAPT0              -32.09931588 [mEh]     -20.14262482 [kcal/mol]     -84.27674224 [kJ/mol]
    Dispersion sSAPT0              -2.32714448 [mEh]      -1.46030521 [kcal/mol]      -6.10991700 [kJ/mol]
  Total sSAPT0                   -138.86492414 [mEh]     -87.13905547 [kcal/mol]    -364.58980811 [kJ/mol]
  --------------------------------------------------------------------------------------------------------

*** Psi4 exiting successfully. Buy a developer a beer!
