                               Psi4 1.9 release

  ==> Input File <==

--------------------------------------------------------------------------
MEMORY 60 GB

molecule dimer {
1 1
Na     0.000000     0.000000     0.000000
--
0 1
O     -1.276190    -1.895462    -0.040608
H     -2.127558    -2.381803    -0.032716
H     -0.649478    -2.617925    -0.097285
O      1.279520    -0.856733     1.908127
H      1.429020    -1.725810     1.617383
H      2.152061    -0.516055     2.066464
O      1.299180    -0.930748    -1.795194
H      1.895986    -0.426229    -2.417540
H      1.773401    -1.700742    -1.666497
O     -1.150366     1.204114    -1.632613
H     -0.622560     1.212033    -2.467742
H     -1.635570     2.032036    -1.478611
O      1.957058     1.448042    -0.052295
H      2.006511     1.818263     0.762342
H      2.834060     1.269535    -0.454297

units ang
no_reorient
no_com
symmetry c1
}

set {
basis        aug-cc-pVTZ
scf_type     df
}

energy("sapt2+")
--------------------------------------------------------------------------

  //              Dimer HF             //
    Molecular point group: c1
  Charge       = 1
  Multiplicity = 1
  Basis Set: AUG-CC-PVTZ
    Blend: AUG-CC-PVTZ
  Basis Set: (AUG-CC-PVTZ AUX)
    Blend: AUG-CC-PVTZ-JKFIT + DEF2-UNIVERSAL-JKFIT
  @DF-RHF Final Energy:  -542.07878805941755
    Total Energy =                       -542.0787880594175476
 Dipole X            :        -43.2138076           45.2201805            2.0063730
 Dipole Y            :         20.6105428          -21.3217666           -0.7112238
 Dipole Z            :         31.4603722          -32.2560433           -0.7956711
 Magnitude           :                                                    2.2725458
  //            Monomer A HF           //
    Molecular point group: c1
  Multiplicity = 1
  Basis Set: AUG-CC-PVTZ
    Blend: AUG-CC-PVTZ
  Basis Set: (AUG-CC-PVTZ AUX)
    Blend: AUG-CC-PVTZ-JKFIT + DEF2-UNIVERSAL-JKFIT
  @DF-RHF Final Energy:  -161.67609100386895
    Total Energy =                       -161.6760910038689758
  //            Monomer B HF           //
    Molecular point group: c1

    Geometry (in Angstrom), charge = 0, multiplicity = 1:

       Center              X                  Y                   Z               Mass
    ------------   -----------------  -----------------  -----------------  -----------------
      Gh(NA)          0.000000000000     0.000000000000     0.000000000000    22.989769282000
         O           -1.276190000000    -1.895462000000    -0.040608000000    15.994914619570
         H           -2.127558000000    -2.381803000000    -0.032716000000     1.007825032230
         H           -0.649478000000    -2.617925000000    -0.097285000000     1.007825032230
         O            1.279520000000    -0.856733000000     1.908127000000    15.994914619570
         H            1.429020000000    -1.725810000000     1.617383000000     1.007825032230
         H            2.152061000000    -0.516055000000     2.066464000000     1.007825032230
         O            1.299180000000    -0.930748000000    -1.795194000000    15.994914619570
         H            1.895986000000    -0.426229000000    -2.417540000000     1.007825032230
         H            1.773401000000    -1.700742000000    -1.666497000000     1.007825032230
         O           -1.150366000000     1.204114000000    -1.632613000000    15.994914619570
         H           -0.622560000000     1.212033000000    -2.467742000000     1.007825032230
         H           -1.635570000000     2.032036000000    -1.478611000000     1.007825032230
         O            1.957058000000     1.448042000000    -0.052295000000    15.994914619570
         H            2.006511000000     1.818263000000     0.762342000000     1.007825032230
         H            2.834060000000     1.269535000000    -0.454297000000     1.007825032230

  Charge       = 0
  Multiplicity = 1
  Basis Set: AUG-CC-PVTZ
    Blend: AUG-CC-PVTZ
  Basis Set: (AUG-CC-PVTZ AUX)
    Blend: AUG-CC-PVTZ-JKFIT + DEF2-UNIVERSAL-JKFIT

    Orbital Energies [Eh]
    ---------------------

    Doubly Occupied:

       1A    -20.550509     2A    -20.538513     3A    -20.536603
       4A    -20.535447     5A    -20.523652     6A     -1.342176
       7A     -1.339135     8A     -1.334937     9A     -1.315515
      10A     -1.293001    11A     -0.724116    12A     -0.702898
      13A     -0.697735    14A     -0.677170    15A     -0.670578
      16A     -0.571065    17A     -0.563230    18A     -0.550329
      19A     -0.544503    20A     -0.517083    21A     -0.502390
      22A     -0.487504    23A     -0.475017    24A     -0.473135
      25A     -0.460908

  @DF-RHF Final Energy:  -380.26104668700646

   => Energetics <=

    Nuclear Repulsion Energy =            190.7000647500828734
    One-Electron Energy =                -906.0679197284541715
    Two-Electron Energy =                 335.1068082913648141
    Total Energy =                       -380.2610466870064556
 Dipole X            :        -43.4711856           45.2201805            1.7489949
 Dipole Y            :         20.7469897          -21.3217666           -0.5747770
 Dipole Z            :         31.6962609          -32.2560433           -0.5597823
 Magnitude           :                                                    1.9242422

    SAPT Results
  --------------------------------------------------------------------------------------------------------
    Electrostatics               -129.75363717 [mEh]     -81.42163658 [kcal/mol]    -340.66812745 [kJ/mol]
      Elst10,r                   -138.21013831 [mEh]     -86.72817116 [kcal/mol]    -362.87066813 [kJ/mol]
      Elst12,r                      8.45650114 [mEh]       5.30653458 [kcal/mol]      22.20254068 [kJ/mol]

    Exchange                       33.12591688 [mEh]      20.78682667 [kcal/mol]      86.97208279 [kJ/mol]
      Exch10                       29.67371004 [mEh]      18.62053417 [kcal/mol]      77.90831496 [kJ/mol]
      Exch10(S^2)                  29.64389362 [mEh]      18.60182409 [kcal/mol]      77.83003199 [kJ/mol]
      Exch11(S^2)                  -0.63734423 [mEh]      -0.39993955 [kcal/mol]      -1.67334706 [kJ/mol]
      Exch12(S^2)                   4.08955108 [mEh]       2.56623205 [kcal/mol]      10.73711489 [kJ/mol]

    Induction                     -38.19031999 [mEh]     -23.96478760 [kcal/mol]    -100.26867131 [kJ/mol]
      Ind20,r                     -60.80756608 [mEh]     -38.15732379 [kcal/mol]    -159.65024276 [kJ/mol]
      Ind22                        -8.79477903 [mEh]      -5.51880716 [kcal/mol]     -23.09068916 [kJ/mol]
      Exch-Ind20,r                 25.70920896 [mEh]      16.13277219 [kcal/mol]      67.49951884 [kJ/mol]
      Exch-Ind22                    3.71839931 [mEh]       2.33333080 [kcal/mol]       9.76265605 [kJ/mol]
      delta HF,r (2)                1.98441685 [mEh]       1.24524037 [kcal/mol]       5.21008572 [kJ/mol]

    Dispersion                     -3.05899392 [mEh]      -1.91954766 [kcal/mol]      -8.03138743 [kJ/mol]
      Disp20                       -3.01155850 [mEh]      -1.88978149 [kcal/mol]      -7.90684576 [kJ/mol]
      Disp21                       -0.07520007 [mEh]      -0.04718875 [kcal/mol]      -0.19743775 [kJ/mol]
      Disp22 (SDQ)                 -0.19050314 [mEh]      -0.11954253 [kcal/mol]      -0.50016593 [kJ/mol]
      Disp22 (T)                   -0.25587472 [mEh]      -0.16056381 [kcal/mol]      -0.67179897 [kJ/mol]
      Est. Disp22 (T)              -0.29468872 [mEh]      -0.18491997 [kcal/mol]      -0.77370514 [kJ/mol]
      Exch-Disp20                   0.51295652 [mEh]       0.32188507 [kcal/mol]       1.34676715 [kJ/mol]

  Total HF                       -141.65036854 [mEh]     -88.88694822 [kcal/mol]    -371.90299137 [kJ/mol]
  Total SAPT0                    -144.14897053 [mEh]     -90.45484464 [kcal/mol]    -378.46306998 [kJ/mol]
  Total SAPT2                    -137.31664226 [mEh]     -86.16749392 [kcal/mol]    -360.52479458 [kJ/mol]
  Total SAPT2+                   -137.87703419 [mEh]     -86.51914517 [kcal/mol]    -361.99610340 [kJ/mol]

  Special recipe for scaled SAPT0 (see Manual):
    Electrostatics sSAPT0        -138.21013831 [mEh]     -86.72817116 [kcal/mol]    -362.87066813 [kJ/mol]
    Exchange sSAPT0                29.67371004 [mEh]      18.62053417 [kcal/mol]      77.90831496 [kJ/mol]
    Induction sSAPT0              -33.03628573 [mEh]     -20.73058228 [kcal/mol]     -86.73675624 [kJ/mol]
    Dispersion sSAPT0              -2.49705260 [mEh]      -1.56692417 [kcal/mol]      -6.55601071 [kJ/mol]
  Total sSAPT0                   -144.06976661 [mEh]     -90.40514343 [kcal/mol]    -378.25512012 [kJ/mol]
  --------------------------------------------------------------------------------------------------------

*** Psi4 exiting successfully. Buy a developer a beer!
