                               Psi4 1.9 release

  ==> Input File <==

--------------------------------------------------------------------------
MEMORY 60 GB

molecule dimer {
1 1
Na     0.000000     0.000000     0.000000
--
0 1
O     -2.147953     1.230804    -0.093503
H     -2.318329     0.383817    -0.571927
H     -2.658431     1.257994     0.763361
O      2.051616    -1.053276     0.872783
H      2.660167    -0.510539     1.345025
H      1.963060    -1.818037     1.441353
O     -0.595914    -2.448793    -0.109229
H     -1.546233    -2.159324     0.026620
H     -0.520204    -2.750060    -0.965962
O      0.312160    -0.147696    -2.334927
H      1.097607    -0.716514    -2.380416
H      0.370388     0.519974    -3.036401
O     -1.188602    -0.231517     2.310981
H     -2.121229     0.121115     2.269242
H     -1.269202    -1.128717     2.652519
O      0.641094     2.197153     0.802216
H      0.985102     2.733240     0.042057
H     -0.201655     2.600602     0.994387

units ang
no_reorient
no_com
symmetry c1
}

set {
basis        aug-cc-pVTZ
scf_type     df
}

energy("sapt2+")
--------------------------------------------------------------------------

  //              Dimer HF             //
    Molecular point group: c1
  Charge       = 1
  Multiplicity = 1
  Basis Set: AUG-CC-PVTZ
    Blend: AUG-CC-PVTZ
  Basis Set: (AUG-CC-PVTZ AUX)
    Blend: AUG-CC-PVTZ-JKFIT + DEF2-UNIVERSAL-JKFIT
  @DF-RHF Final Energy:  -618.13687956971717
    Total Energy =                       -618.1368795697171663
 Dipole X            :         19.6835710          -20.7487223           -1.0651513
 Dipole Y            :          9.2109280           -9.6244678           -0.4135398
 Dipole Z            :        -26.9433056           26.7706653           -0.1726402
 Magnitude           :                                                    1.1555808
  //            Monomer A HF           //
    Molecular point group: c1
  Multiplicity = 1
  Basis Set: AUG-CC-PVTZ
    Blend: AUG-CC-PVTZ
  Basis Set: (AUG-CC-PVTZ AUX)
    Blend: AUG-CC-PVTZ-JKFIT + DEF2-UNIVERSAL-JKFIT
  @DF-RHF Final Energy:  -161.67609558764835
    Total Energy =                       -161.6760955876483763
  //            Monomer B HF           //
    Molecular point group: c1

    Geometry (in Angstrom), charge = 0, multiplicity = 1:

       Center              X                  Y                   Z               Mass
    ------------   -----------------  -----------------  -----------------  -----------------
      Gh(NA)          0.000000000000     0.000000000000     0.000000000000    22.989769282000
         O           -2.147953000000     1.230804000000    -0.093503000000    15.994914619570
         H           -2.318329000000     0.383817000000    -0.571927000000     1.007825032230
         H           -2.658431000000     1.257994000000     0.763361000000     1.007825032230
         O            2.051616000000    -1.053276000000     0.872783000000    15.994914619570
         H            2.660167000000    -0.510539000000     1.345025000000     1.007825032230
         H            1.963060000000    -1.818037000000     1.441353000000     1.007825032230
         O           -0.595914000000    -2.448793000000    -0.109229000000    15.994914619570
         H           -1.546233000000    -2.159324000000     0.026620000000     1.007825032230
         H           -0.520204000000    -2.750060000000    -0.965962000000     1.007825032230
         O            0.312160000000    -0.147696000000    -2.334927000000    15.994914619570
         H            1.097607000000    -0.716514000000    -2.380416000000     1.007825032230
         H            0.370388000000     0.519974000000    -3.036401000000     1.007825032230
         O           -1.188602000000    -0.231517000000     2.310981000000    15.994914619570
         H           -2.121229000000     0.121115000000     2.269242000000     1.007825032230
         H           -1.269202000000    -1.128717000000     2.652519000000     1.007825032230
         O            0.641094000000     2.197153000000     0.802216000000    15.994914619570
         H            0.985102000000     2.733240000000     0.042057000000     1.007825032230
         H           -0.201655000000     2.600602000000     0.994387000000     1.007825032230

  Charge       = 0
  Multiplicity = 1
  Basis Set: AUG-CC-PVTZ
    Blend: AUG-CC-PVTZ
  Basis Set: (AUG-CC-PVTZ AUX)
    Blend: AUG-CC-PVTZ-JKFIT + DEF2-UNIVERSAL-JKFIT

    Orbital Energies [Eh]
    ---------------------

    Doubly Occupied:

       1A    -20.557183     2A    -20.556582     3A    -20.547068
       4A    -20.544666     5A    -20.525150     6A    -20.524512
       7A     -1.333820     8A     -1.329664     9A     -1.323489
      10A     -1.318780    11A     -1.317409    12A     -1.301204
      13A     -0.709120    14A     -0.703754    15A     -0.697260
      16A     -0.686849    17A     -0.677440    18A     -0.662950
      19A     -0.564370    20A     -0.559698    21A     -0.555272
      22A     -0.554154    23A     -0.545815    24A     -0.536352
      25A     -0.504093    26A     -0.488964    27A     -0.486071
      28A     -0.483012    29A     -0.469034    30A     -0.460413

  @DF-RHF Final Energy:  -456.32442509483468

   => Energetics <=

    Nuclear Repulsion Energy =            265.5536539500018307
    One-Electron Energy =               -1160.7078557945299053
    Two-Electron Energy =                 438.8297767496933943
    Total Energy =                       -456.3244250948346803
 Dipole X            :         19.7886185          -20.7487223           -0.9601038
 Dipole Y            :          9.2264031           -9.6244678           -0.3980647
 Dipole Z            :        -27.0443447           26.7706653           -0.2736794
 Magnitude           :                                                    1.0747815

    SAPT Results
  --------------------------------------------------------------------------------------------------------
    Electrostatics               -122.48972376 [mEh]     -76.86346210 [kcal/mol]    -321.59672543 [kJ/mol]
      Elst10,r                   -128.55775888 [mEh]     -80.67121163 [kcal/mol]    -337.52834944 [kJ/mol]
      Elst12,r                      6.06803512 [mEh]       3.80774952 [kcal/mol]      15.93162401 [kJ/mol]

    Exchange                       31.63985142 [mEh]      19.85430651 [kcal/mol]      83.07041845 [kJ/mol]
      Exch10                       27.52557727 [mEh]      17.27256051 [kcal/mol]      72.26839316 [kJ/mol]
      Exch10(S^2)                  27.50716279 [mEh]      17.26100525 [kcal/mol]      72.22004597 [kJ/mol]
      Exch11(S^2)                  -0.65738483 [mEh]      -0.41251521 [kcal/mol]      -1.72596364 [kJ/mol]
      Exch12(S^2)                   4.77165898 [mEh]       2.99426122 [kcal/mol]      12.52798893 [kJ/mol]

    Induction                     -41.49465236 [mEh]     -26.03828746 [kcal/mol]    -108.94419475 [kJ/mol]
      Ind20,r                     -62.34934584 [mEh]     -39.12480520 [kcal/mol]    -163.69818496 [kJ/mol]
      Ind22                       -10.37125221 [mEh]      -6.50805902 [kcal/mol]     -27.22971892 [kJ/mol]
      Exch-Ind20,r                 25.26920967 [mEh]      15.85666846 [kcal/mol]      66.34430086 [kJ/mol]
      Exch-Ind22                    4.20330547 [mEh]       2.63761401 [kcal/mol]      11.03577700 [kJ/mol]
      delta HF,r (2)                1.75343055 [mEh]       1.10029428 [kcal/mol]       4.60363127 [kJ/mol]

    Dispersion                     -3.26578222 [mEh]      -2.04930928 [kcal/mol]      -8.57431005 [kJ/mol]
      Disp20                       -3.13362776 [mEh]      -1.96638110 [kcal/mol]      -8.22733854 [kJ/mol]
      Disp21                       -0.10069419 [mEh]      -0.06318656 [kcal/mol]      -0.26437257 [kJ/mol]
      Disp22 (SDQ)                 -0.21368520 [mEh]      -0.13408949 [kcal/mol]      -0.56103042 [kJ/mol]
      Disp22 (T)                   -0.28603951 [mEh]      -0.17949251 [kcal/mol]      -0.75099664 [kJ/mol]
      Est. Disp22 (T)              -0.31945829 [mEh]      -0.20046310 [kcal/mol]      -0.83873762 [kJ/mol]
      Exch-Disp20                   0.50168322 [mEh]       0.31481097 [kcal/mol]       1.31716911 [kJ/mol]

  Total HF                       -136.35888723 [mEh]     -85.56649357 [kcal/mol]    -358.01020911 [kJ/mol]
  Total SAPT0                    -138.99083177 [mEh]     -87.21806371 [kcal/mol]    -364.92037854 [kJ/mol]
  Total SAPT2                    -134.97646924 [mEh]     -84.69901318 [kcal/mol]    -354.38067116 [kJ/mol]
  Total SAPT2+                   -135.61030693 [mEh]     -85.09675234 [kcal/mol]    -356.04481178 [kJ/mol]

  Special recipe for scaled SAPT0 (see Manual):
    Electrostatics sSAPT0        -128.55775888 [mEh]     -80.67121163 [kcal/mol]    -337.52834944 [kJ/mol]
    Exchange sSAPT0                27.52557727 [mEh]      17.27256051 [kcal/mol]      72.26839316 [kJ/mol]
    Induction sSAPT0              -35.27592276 [mEh]     -22.13597573 [kcal/mol]     -92.61692245 [kJ/mol]
    Dispersion sSAPT0              -2.63093632 [mEh]      -1.65093746 [kcal/mol]      -6.90752235 [kJ/mol]
  Total sSAPT0                   -138.93904069 [mEh]     -87.18556431 [kcal/mol]    -364.78440108 [kJ/mol]
  --------------------------------------------------------------------------------------------------------

*** Psi4 exiting successfully. Buy a developer a beer!
