                               Psi4 1.9 release

  ==> Input File <==

--------------------------------------------------------------------------
MEMORY 60 GB

molecule dimer {
1 1
Na     0.000000     0.000000     0.000000
--
0 1
O      1.436661     1.902962    -0.211771
H      2.350805     1.847534     0.091780
H      1.026974     2.533356     0.386801
O     -1.323065    -1.521620    -1.098658
H     -2.179765    -1.636529    -1.427199
H     -0.814186    -2.298524    -1.350965
O     -1.869489     1.230228     0.654969
H     -2.527117     1.848262     0.238872
H     -2.357574     0.443019     0.966796
O      0.132845    -0.887295     1.960114
H     -0.489936    -1.193447     2.627722
H      0.980462    -1.159278     2.361285
O      1.844118    -1.561191    -0.276992
H      2.698911    -1.163388     0.115895
H      1.690859    -2.432842     0.069830

units ang
no_reorient
no_com
symmetry c1
}

set {
basis        aug-cc-pVTZ
scf_type     df
}

energy("sapt2+")
--------------------------------------------------------------------------

  //              Dimer HF             //
    Molecular point group: c1
  Charge       = 1
  Multiplicity = 1
  Basis Set: AUG-CC-PVTZ
    Blend: AUG-CC-PVTZ
  Basis Set: (AUG-CC-PVTZ AUX)
    Blend: AUG-CC-PVTZ-JKFIT + DEF2-UNIVERSAL-JKFIT
  @DF-RHF Final Energy:  -542.08628152227220
    Total Energy =                       -542.0862815222722020
 Dipole X            :         -4.1423049            4.0591185           -0.0831864
 Dipole Y            :         17.6117968          -18.7218285           -1.1100318
 Dipole Z            :        -21.8202833           23.2476243            1.4273410
 Magnitude           :                                                    1.8100809
  //            Monomer A HF           //
    Molecular point group: c1
  Multiplicity = 1
  Basis Set: AUG-CC-PVTZ
    Blend: AUG-CC-PVTZ
  Basis Set: (AUG-CC-PVTZ AUX)
    Blend: AUG-CC-PVTZ-JKFIT + DEF2-UNIVERSAL-JKFIT
  @DF-RHF Final Energy:  -161.67609423419754
    Total Energy =                       -161.6760942341975351
  //            Monomer B HF           //
    Molecular point group: c1

    Geometry (in Angstrom), charge = 0, multiplicity = 1:

       Center              X                  Y                   Z               Mass
    ------------   -----------------  -----------------  -----------------  -----------------
      Gh(NA)          0.000000000000     0.000000000000     0.000000000000    22.989769282000
         O            1.436661000000     1.902962000000    -0.211771000000    15.994914619570
         H            2.350805000000     1.847534000000     0.091780000000     1.007825032230
         H            1.026974000000     2.533356000000     0.386801000000     1.007825032230
         O           -1.323065000000    -1.521620000000    -1.098658000000    15.994914619570
         H           -2.179765000000    -1.636529000000    -1.427199000000     1.007825032230
         H           -0.814186000000    -2.298524000000    -1.350965000000     1.007825032230
         O           -1.869489000000     1.230228000000     0.654969000000    15.994914619570
         H           -2.527117000000     1.848262000000     0.238872000000     1.007825032230
         H           -2.357574000000     0.443019000000     0.966796000000     1.007825032230
         O            0.132845000000    -0.887295000000     1.960114000000    15.994914619570
         H           -0.489936000000    -1.193447000000     2.627722000000     1.007825032230
         H            0.980462000000    -1.159278000000     2.361285000000     1.007825032230
         O            1.844118000000    -1.561191000000    -0.276992000000    15.994914619570
         H            2.698911000000    -1.163388000000     0.115895000000     1.007825032230
         H            1.690859000000    -2.432842000000     0.069830000000     1.007825032230

  Charge       = 0
  Multiplicity = 1
  Basis Set: AUG-CC-PVTZ
    Blend: AUG-CC-PVTZ
  Basis Set: (AUG-CC-PVTZ AUX)
    Blend: AUG-CC-PVTZ-JKFIT + DEF2-UNIVERSAL-JKFIT

    Orbital Energies [Eh]
    ---------------------

    Doubly Occupied:

       1A    -20.546229     2A    -20.545318     3A    -20.537221
       4A    -20.533342     5A    -20.532049     6A     -1.329343
       7A     -1.326298     8A     -1.314644     9A     -1.313114
      10A     -1.303808    11A     -0.701852    12A     -0.690748
      13A     -0.682237    14A     -0.677933    15A     -0.673466
      16A     -0.564606    17A     -0.549131    18A     -0.546735
      19A     -0.540841    20A     -0.537542    21A     -0.493150
      22A     -0.479779    23A     -0.475515    24A     -0.472686
      25A     -0.469501

  @DF-RHF Final Energy:  -380.26801427803292

   => Energetics <=

    Nuclear Repulsion Energy =            189.6841335436181737
    One-Electron Energy =                -904.2301125774413322
    Two-Electron Energy =                 334.2779647557902649
    Total Energy =                       -380.2680142780329220
 Dipole X            :         -4.1438104            4.0591185           -0.0846919
 Dipole Y            :         17.7464399          -18.7218285           -0.9753886
 Dipole Z            :        -22.0273695           23.2476243            1.2202548
 Magnitude           :                                                    1.5644735

    SAPT Results
  --------------------------------------------------------------------------------------------------------
    Electrostatics               -137.54732731 [mEh]     -86.31225098 [kcal/mol]    -361.13045810 [kJ/mol]
      Elst10,r                   -146.29459708 [mEh]     -91.80124563 [kcal/mol]    -384.09641171 [kJ/mol]
      Elst12,r                      8.74726977 [mEh]       5.48899465 [kcal/mol]      22.96595362 [kJ/mol]

    Exchange                       43.73912502 [mEh]      27.44671532 [kcal/mol]     114.83705691 [kJ/mol]
      Exch10                       39.59969140 [mEh]      24.84918152 [kcal/mol]     103.96897546 [kJ/mol]
      Exch10(S^2)                  39.54199138 [mEh]      24.81297421 [kcal/mol]     103.81748408 [kJ/mol]
      Exch11(S^2)                  -0.88411729 [mEh]      -0.55479197 [kcal/mol]      -2.32124962 [kJ/mol]
      Exch12(S^2)                   5.02355090 [mEh]       3.15232578 [kcal/mol]      13.18933107 [kJ/mol]

    Induction                     -40.95741754 [mEh]     -25.70116753 [kcal/mol]    -107.53368493 [kJ/mol]
      Ind20,r                     -70.83612158 [mEh]     -44.45033738 [kcal/mol]    -185.98021159 [kJ/mol]
      Ind22                       -10.23984629 [mEh]      -6.42560056 [kcal/mol]     -26.88471273 [kJ/mol]
      Exch-Ind20,r                 32.93191062 [mEh]      20.66508591 [kcal/mol]      86.46271943 [kJ/mol]
      Exch-Ind22                    4.76053312 [mEh]       2.98727963 [kcal/mol]      12.49877798 [kJ/mol]
      delta HF,r (2)                2.42610659 [mEh]       1.52240487 [kcal/mol]       6.36974197 [kJ/mol]

    Dispersion                     -3.62194260 [mEh]      -2.27280330 [kcal/mol]      -9.50940899 [kJ/mol]
      Disp20                       -3.66952436 [mEh]      -2.30266130 [kcal/mol]      -9.63433489 [kJ/mol]
      Disp21                       -0.06846647 [mEh]      -0.04296336 [kcal/mol]      -0.17975868 [kJ/mol]
      Disp22 (SDQ)                 -0.22936691 [mEh]      -0.14392991 [kcal/mol]      -0.60220274 [kJ/mol]
      Disp22 (T)                   -0.31275592 [mEh]      -0.19625730 [kcal/mol]      -0.82114055 [kJ/mol]
      Est. Disp22 (T)              -0.35644887 [mEh]      -0.22367505 [kcal/mol]      -0.93585639 [kJ/mol]
      Exch-Disp20                   0.70186401 [mEh]       0.44042632 [kcal/mol]       1.84274372 [kJ/mol]

  Total HF                       -142.17301004 [mEh]     -89.21491072 [kcal/mol]    -373.27518644 [kJ/mol]
  Total SAPT0                    -145.14067039 [mEh]     -91.07714570 [kcal/mol]    -381.06677761 [kJ/mol]
  Total SAPT2                    -137.73328018 [mEh]     -86.42893817 [kcal/mol]    -361.61867729 [kJ/mol]
  Total SAPT2+                   -138.38756243 [mEh]     -86.83950648 [kcal/mol]    -363.33649511 [kJ/mol]

  Special recipe for scaled SAPT0 (see Manual):
    Electrostatics sSAPT0        -146.29459708 [mEh]     -91.80124563 [kcal/mol]    -384.09641171 [kJ/mol]
    Exchange sSAPT0                39.59969140 [mEh]      24.84918152 [kcal/mol]     103.96897546 [kJ/mol]
    Induction sSAPT0              -35.33373030 [mEh]     -22.17225051 [kcal/mol]     -92.76869613 [kJ/mol]
    Dispersion sSAPT0              -2.96458337 [mEh]      -1.86030415 [kcal/mol]      -7.78351256 [kJ/mol]
  Total sSAPT0                   -144.99321934 [mEh]     -90.98461877 [kcal/mol]    -380.67964494 [kJ/mol]
  --------------------------------------------------------------------------------------------------------

*** Psi4 exiting successfully. Buy a developer a beer!
