                               Psi4 1.9 release

  ==> Input File <==

--------------------------------------------------------------------------
MEMORY 60 GB

molecule dimer {
1 1
Na     0.000000     0.000000     0.000000
--
0 1
O      2.442818    -0.818335    -0.280039
H      2.662756    -1.105563    -1.187076
H      3.208163    -0.351618     0.190231
O     -0.058577    -2.340401    -0.318056
H     -0.112691    -2.261522    -1.308213
H      0.766812    -2.877198    -0.136880
O      0.863805     0.451918     1.955806
H      0.128582     0.541557     2.595334
H      1.459083    -0.217450     2.287615
O     -0.118006     0.999042    -2.213928
H     -0.295160     0.203419    -2.715433
H     -0.977633     1.399250    -1.948543
O     -2.250881    -0.512047    -0.293423
H     -2.775036    -0.153755     0.439369
H     -2.575489    -1.386135    -0.545203

units ang
no_reorient
no_com
symmetry c1
}

set {
basis        aug-cc-pVTZ
scf_type     df
}

energy("sapt2+")
--------------------------------------------------------------------------

  //              Dimer HF             //
    Molecular point group: c1
  Charge       = 1
  Multiplicity = 1
  Basis Set: AUG-CC-PVTZ
    Blend: AUG-CC-PVTZ
  Basis Set: (AUG-CC-PVTZ AUX)
    Blend: AUG-CC-PVTZ-JKFIT + DEF2-UNIVERSAL-JKFIT
  @DF-RHF Final Energy:  -542.06824645727011
    Total Energy =                       -542.0682464572701065
 Dipole X            :        -16.2212712           16.1054914           -0.1157798
 Dipole Y            :         43.9159678          -45.2921980           -1.3762302
 Dipole Z            :         21.7995415          -21.7808303            0.0187113
 Magnitude           :                                                    1.3812185
  //            Monomer A HF           //
    Molecular point group: c1
  Multiplicity = 1
  Basis Set: AUG-CC-PVTZ
    Blend: AUG-CC-PVTZ
  Basis Set: (AUG-CC-PVTZ AUX)
    Blend: AUG-CC-PVTZ-JKFIT + DEF2-UNIVERSAL-JKFIT
  @DF-RHF Final Energy:  -161.67609305757946
    Total Energy =                       -161.6760930575794646
  //            Monomer B HF           //
    Molecular point group: c1

    Geometry (in Angstrom), charge = 0, multiplicity = 1:

       Center              X                  Y                   Z               Mass
    ------------   -----------------  -----------------  -----------------  -----------------
      Gh(NA)          0.000000000000     0.000000000000     0.000000000000    22.989769282000
         O            2.442818000000    -0.818335000000    -0.280039000000    15.994914619570
         H            2.662756000000    -1.105563000000    -1.187076000000     1.007825032230
         H            3.208163000000    -0.351618000000     0.190231000000     1.007825032230
         O           -0.058577000000    -2.340401000000    -0.318056000000    15.994914619570
         H           -0.112691000000    -2.261522000000    -1.308213000000     1.007825032230
         H            0.766812000000    -2.877198000000    -0.136880000000     1.007825032230
         O            0.863805000000     0.451918000000     1.955806000000    15.994914619570
         H            0.128582000000     0.541557000000     2.595334000000     1.007825032230
         H            1.459083000000    -0.217450000000     2.287615000000     1.007825032230
         O           -0.118006000000     0.999042000000    -2.213928000000    15.994914619570
         H           -0.295160000000     0.203419000000    -2.715433000000     1.007825032230
         H           -0.977633000000     1.399250000000    -1.948543000000     1.007825032230
         O           -2.250881000000    -0.512047000000    -0.293423000000    15.994914619570
         H           -2.775036000000    -0.153755000000     0.439369000000     1.007825032230
         H           -2.575489000000    -1.386135000000    -0.545203000000     1.007825032230

  Charge       = 0
  Multiplicity = 1
  Basis Set: AUG-CC-PVTZ
    Blend: AUG-CC-PVTZ
  Basis Set: (AUG-CC-PVTZ AUX)
    Blend: AUG-CC-PVTZ-JKFIT + DEF2-UNIVERSAL-JKFIT

    Orbital Energies [Eh]
    ---------------------

    Doubly Occupied:

       1A    -20.549979     2A    -20.546665     3A    -20.545403
       4A    -20.537344     5A    -20.533595     6A     -1.326410
       7A     -1.317329     8A     -1.312256     9A     -1.310457
      10A     -1.304841    11A     -0.706801    12A     -0.699277
      13A     -0.686572    14A     -0.685357    15A     -0.670887
      16A     -0.557928    17A     -0.551387    18A     -0.548583
      19A     -0.540402    20A     -0.537828    21A     -0.487141
      22A     -0.484962    23A     -0.477735    24A     -0.475203
      25A     -0.471570

  @DF-RHF Final Energy:  -380.26707957028464

   => Energetics <=

    Nuclear Repulsion Energy =            190.3333705811175207
    One-Electron Energy =                -905.4690633491219387
    Two-Electron Energy =                 334.8686131977198102
    Total Energy =                       -380.2670795702846362
 Dipole X            :        -16.2914677           16.1054914           -0.1859763
 Dipole Y            :         44.2039335          -45.2921980           -1.0882645
 Dipole Z            :         21.8764761          -21.7808303            0.0956458
 Magnitude           :                                                    1.1081764

    SAPT Results
  --------------------------------------------------------------------------------------------------------
    Electrostatics               -125.21978613 [mEh]     -78.57660210 [kcal/mol]    -328.76450319 [kJ/mol]
      Elst10,r                   -130.84136503 [mEh]     -82.10419612 [kcal/mol]    -343.52395655 [kJ/mol]
      Elst12,r                      5.62157889 [mEh]       3.52759401 [kcal/mol]      14.75945335 [kJ/mol]

    Exchange                       44.10384598 [mEh]      27.67558118 [kcal/mol]     115.79463167 [kJ/mol]
      Exch10                       39.25361590 [mEh]      24.63201586 [kcal/mol]     103.06035434 [kJ/mol]
      Exch10(S^2)                  39.18836161 [mEh]      24.59106817 [kcal/mol]     102.88902924 [kJ/mol]
      Exch11(S^2)                  -0.86215710 [mEh]      -0.54101175 [kcal/mol]      -2.26359316 [kJ/mol]
      Exch12(S^2)                   5.71238719 [mEh]       3.58457708 [kcal/mol]      14.99787049 [kJ/mol]

    Induction                     -39.26228097 [mEh]     -24.63745327 [kcal/mol]    -103.08310449 [kJ/mol]
      Ind20,r                     -72.11876522 [mEh]     -45.25520841 [kcal/mol]    -189.34779199 [kJ/mol]
      Ind22                       -11.56287945 [mEh]      -7.25581640 [kcal/mol]     -30.35833581 [kJ/mol]
      Exch-Ind20,r                 36.09205895 [mEh]      22.64810892 [kcal/mol]      94.75968772 [kJ/mol]
      Exch-Ind22                    5.78667876 [mEh]       3.63119574 [kcal/mol]      15.19292299 [kJ/mol]
      delta HF,r (2)                2.54062599 [mEh]       1.59426688 [kcal/mol]       6.67041261 [kJ/mol]

    Dispersion                     -3.36598262 [mEh]      -2.11218598 [kcal/mol]      -8.83738616 [kJ/mol]
      Disp20                       -3.38985860 [mEh]      -2.12716839 [kcal/mol]      -8.90007253 [kJ/mol]
      Disp21                       -0.09364219 [mEh]      -0.05876136 [kcal/mol]      -0.24585753 [kJ/mol]
      Disp22 (SDQ)                 -0.22352172 [mEh]      -0.14026199 [kcal/mol]      -0.58685619 [kJ/mol]
      Disp22 (T)                   -0.29775182 [mEh]      -0.18684209 [kcal/mol]      -0.78174729 [kJ/mol]
      Est. Disp22 (T)              -0.33745060 [mEh]      -0.21175345 [kcal/mol]      -0.88597642 [kJ/mol]
      Exch-Disp20                   0.67849048 [mEh]       0.42575920 [kcal/mol]       1.78137650 [kJ/mol]

  Total HF                       -125.07382941 [mEh]     -78.48501287 [kcal/mol]    -328.38129386 [kJ/mol]
  Total SAPT0                    -127.78519753 [mEh]     -80.18642206 [kcal/mol]    -335.49998989 [kJ/mol]
  Total SAPT2                    -123.08958924 [mEh]     -77.23988337 [kcal/mol]    -323.17167204 [kJ/mol]
  Total SAPT2+                   -123.74420374 [mEh]     -77.65066017 [kcal/mol]    -324.89036217 [kJ/mol]

  Special recipe for scaled SAPT0 (see Manual):
    Electrostatics sSAPT0        -130.84136503 [mEh]     -82.10419612 [kcal/mol]    -343.52395655 [kJ/mol]
    Exchange sSAPT0                39.25361590 [mEh]      24.63201586 [kcal/mol]     103.06035434 [kJ/mol]
    Induction sSAPT0              -33.30548441 [mEh]     -20.89950700 [kcal/mol]     -87.44353727 [kJ/mol]
    Dispersion sSAPT0              -2.70797312 [mEh]      -1.69927879 [kcal/mol]      -7.10978246 [kJ/mol]
  Total sSAPT0                   -127.60120666 [mEh]     -80.07096605 [kcal/mol]    -335.01692194 [kJ/mol]
  --------------------------------------------------------------------------------------------------------

*** Psi4 exiting successfully. Buy a developer a beer!
