                               Psi4 1.9 release

  ==> Input File <==

--------------------------------------------------------------------------
MEMORY 60 GB

molecule dimer {
1 1
K      0.000000     0.000000     0.000000
--
0 1
O     -1.761971     1.679819    -1.384796
H     -1.993530     1.859311    -2.310131
H     -1.491064     2.551322    -1.061033
O     -1.934913    -2.329125     0.427012
H     -2.429676    -2.843944    -0.200316
H     -2.478147    -1.527226     0.550138
O     -0.769395    -1.744512    -2.140743
H     -0.280499    -2.412102    -1.484121
H     -1.513491    -2.237356    -2.422087
O      0.163245     3.037506     0.036371
H      0.343344     3.833379    -0.472962
H      0.088329     3.252112     0.940310
O      2.337800     1.279403    -0.997110
H      2.614134     2.061165    -0.590317
H      1.747208     1.653313    -1.667772
O      0.977425    -0.442696     2.492052
H      1.859603    -0.903416     2.580845
H      0.477952    -0.770092     3.245807

units ang
no_reorient
no_com
symmetry c1
}

set {
basis        aug-cc-pVTZ
scf_type     df
}

energy("sapt2+")
--------------------------------------------------------------------------

  //              Dimer HF             //
    Molecular point group: c1
  Charge       = 1
  Multiplicity = 1
  Basis Set: AUG-CC-PVTZ
    Blend: AUG-CC-PVTZ
  Basis Set: (AUG-CC-PVTZ AUX)
    Blend: AUG-CC-PVTZ-JKFIT + DEF2-UNIVERSAL-JKFIT
  @DF-RHF Final Energy: -1055.44185460330232
    Total Energy =                      -1055.4418546033023176
 Dipole X            :         20.0070116          -20.7082028           -0.7011913
 Dipole Y            :        -29.6919071           30.9152127            1.2233056
 Dipole Z            :         29.3926831          -29.1572477            0.2354354
 Magnitude           :                                                    1.4295368
  //            Monomer A HF           //
    Molecular point group: c1
  Multiplicity = 1
  Basis Set: AUG-CC-PVTZ
    Blend: AUG-CC-PVTZ
  Basis Set: (AUG-CC-PVTZ AUX)
    Blend: AUG-CC-PVTZ-JKFIT + DEF2-UNIVERSAL-JKFIT
  @DF-RHF Final Energy:  -599.01751651678001
    Total Energy =                       -599.0175165167800060
  //            Monomer B HF           //
    Molecular point group: c1

    Geometry (in Angstrom), charge = 0, multiplicity = 1:

       Center              X                  Y                   Z               Mass
    ------------   -----------------  -----------------  -----------------  -----------------
      Gh(K)           0.000000000000     0.000000000000     0.000000000000    38.963706486400
         O           -1.761971000000     1.679819000000    -1.384796000000    15.994914619570
         H           -1.993530000000     1.859311000000    -2.310131000000     1.007825032230
         H           -1.491064000000     2.551322000000    -1.061033000000     1.007825032230
         O           -1.934913000000    -2.329125000000     0.427012000000    15.994914619570
         H           -2.429676000000    -2.843944000000    -0.200316000000     1.007825032230
         H           -2.478147000000    -1.527226000000     0.550138000000     1.007825032230
         O           -0.769395000000    -1.744512000000    -2.140743000000    15.994914619570
         H           -0.280499000000    -2.412102000000    -1.484121000000     1.007825032230
         H           -1.513491000000    -2.237356000000    -2.422087000000     1.007825032230
         O            0.163245000000     3.037506000000     0.036371000000    15.994914619570
         H            0.343344000000     3.833379000000    -0.472962000000     1.007825032230
         H            0.088329000000     3.252112000000     0.940310000000     1.007825032230
         O            2.337800000000     1.279403000000    -0.997110000000    15.994914619570
         H            2.614134000000     2.061165000000    -0.590317000000     1.007825032230
         H            1.747208000000     1.653313000000    -1.667772000000     1.007825032230
         O            0.977425000000    -0.442696000000     2.492052000000    15.994914619570
         H            1.859603000000    -0.903416000000     2.580845000000     1.007825032230
         H            0.477952000000    -0.770092000000     3.245807000000     1.007825032230

  Charge       = 0
  Multiplicity = 1
  Basis Set: AUG-CC-PVTZ
    Blend: AUG-CC-PVTZ
  Basis Set: (AUG-CC-PVTZ AUX)
    Blend: AUG-CC-PVTZ-JKFIT + DEF2-UNIVERSAL-JKFIT

    Orbital Energies [Eh]
    ---------------------

    Doubly Occupied:

       1A    -20.571920     2A    -20.550911     3A    -20.548340
       4A    -20.538336     5A    -20.533849     6A    -20.528950
       7A     -1.368835     8A     -1.333483     9A     -1.326438
      10A     -1.322138    11A     -1.314171    12A     -1.304882
      13A     -0.745954    14A     -0.695502    15A     -0.682452
      16A     -0.679612    17A     -0.676006    18A     -0.662196
      19A     -0.586763    20A     -0.567409    21A     -0.561902
      22A     -0.560520    23A     -0.553546    24A     -0.546451
      25A     -0.519436    26A     -0.501514    27A     -0.487691
      28A     -0.474359    29A     -0.471761    30A     -0.462476

  @DF-RHF Final Energy:  -456.33054468668428

   => Energetics <=

    Nuclear Repulsion Energy =            244.0152893610053013
    One-Electron Energy =               -1117.3360556327829727
    Two-Electron Energy =                 416.9902215850933658
    Total Energy =                       -456.3305446866842772
 Dipole X            :         20.0592070          -20.7082028           -0.6489958
 Dipole Y            :        -29.8114706           30.9152127            1.1037421
 Dipole Z            :         29.5196363          -29.1572477            0.3623887
 Magnitude           :                                                    1.3307019

    SAPT Results
  --------------------------------------------------------------------------------------------------------
    Electrostatics                -92.94868127 [mEh]     -58.32617807 [kcal/mol]    -244.03672904 [kJ/mol]
      Elst10,r                    -97.97544723 [mEh]     -61.48052134 [kcal/mol]    -257.23450127 [kJ/mol]
      Elst12,r                      5.02676597 [mEh]       3.15434327 [kcal/mol]      13.19777223 [kJ/mol]

    Exchange                       30.49409061 [mEh]      19.13533075 [kcal/mol]      80.06222387 [kJ/mol]
      Exch10                       26.99887325 [mEh]      16.94204875 [kcal/mol]      70.88553196 [kJ/mol]
      Exch10(S^2)                  26.96396716 [mEh]      16.92014484 [kcal/mol]      70.79388602 [kJ/mol]
      Exch11(S^2)                  -0.21494697 [mEh]      -0.13488126 [kcal/mol]      -0.56434318 [kJ/mol]
      Exch12(S^2)                   3.71016432 [mEh]       2.32816326 [kcal/mol]       9.74103508 [kJ/mol]

    Induction                     -26.79882386 [mEh]     -16.81651586 [kcal/mol]     -70.36030235 [kJ/mol]
      Ind20,r                     -41.69571922 [mEh]     -26.16445883 [kcal/mol]    -109.47209574 [kJ/mol]
      Ind22                        -7.60488080 [mEh]      -4.77213475 [kcal/mol]     -19.96661180 [kJ/mol]
      Exch-Ind20,r                 19.86338880 [mEh]      12.46446466 [kcal/mol]      52.15132012 [kJ/mol]
      Exch-Ind22                    3.62288281 [mEh]       2.27339328 [kcal/mol]       9.51187749 [kJ/mol]
      delta HF,r (2)               -0.98449544 [mEh]      -0.61778022 [kcal/mol]      -2.58479242 [kJ/mol]

    Dispersion                     -9.29298918 [mEh]      -5.83143875 [kcal/mol]     -24.39873974 [kJ/mol]
      Disp20                      -10.61627183 [mEh]      -6.66181115 [kcal/mol]     -27.87301786 [kJ/mol]
      Disp21                        1.52113523 [mEh]       0.95452677 [kcal/mol]       3.99374000 [kJ/mol]
      Disp22 (SDQ)                 -0.13339990 [mEh]      -0.08370970 [kcal/mol]      -0.35024139 [kJ/mol]
      Disp22 (T)                   -1.13830621 [mEh]      -0.71429793 [kcal/mol]      -2.98862255 [kJ/mol]
      Est. Disp22 (T)              -1.22543940 [mEh]      -0.76897484 [kcal/mol]      -3.21739071 [kJ/mol]
      Exch-Disp20                   1.16098672 [mEh]       0.72853017 [kcal/mol]       3.04817022 [kJ/mol]

  Total HF                        -93.79339984 [mEh]     -58.85624698 [kcal/mol]    -246.25453735 [kJ/mol]
  Total SAPT0                    -103.24868495 [mEh]     -64.78952796 [kcal/mol]    -271.07938499 [kJ/mol]
  Total SAPT2                     -98.70869963 [mEh]     -61.94064416 [kcal/mol]    -259.15965516 [kJ/mol]
  Total SAPT2+                    -98.54640370 [mEh]     -61.83880193 [kcal/mol]    -258.73354726 [kJ/mol]

  Special recipe for scaled SAPT0 (see Manual):
    Electrostatics sSAPT0         -97.97544723 [mEh]     -61.48052134 [kcal/mol]    -257.23450127 [kJ/mol]
    Exchange sSAPT0                26.99887325 [mEh]      16.94204875 [kcal/mol]      70.88553196 [kJ/mol]
    Induction sSAPT0              -22.73958374 [mEh]     -14.26930423 [kcal/mol]     -59.70276890 [kJ/mol]
    Dispersion sSAPT0              -9.45077042 [mEh]      -5.93044797 [kcal/mol]     -24.81299432 [kJ/mol]
  Total sSAPT0                   -103.16692814 [mEh]     -64.73822479 [kcal/mol]    -270.86473252 [kJ/mol]
  --------------------------------------------------------------------------------------------------------

*** Psi4 exiting successfully. Buy a developer a beer!
