                               Psi4 1.9 release

  ==> Input File <==

--------------------------------------------------------------------------
MEMORY 60 GB

molecule dimer {
1 1
K      0.000000     0.000000     0.000000
--
0 1
O      1.994248    -0.017398     1.891531
H      1.707381    -0.444684     2.688689
H      2.464755     0.808222     2.122342
O     -0.735496     2.189679     1.691371
H     -0.954476     2.443049     2.639599
H     -0.466618     3.047346     1.358724
O      1.549750     2.058046    -0.852344
H      1.913323     2.259444    -1.747396
H      2.335189     2.116884    -0.306564
O     -1.132510     0.224565    -2.466410
H     -0.537321     0.540552    -3.138504
H     -1.916525     0.761111    -2.341546
O      1.250518    -2.229136    -0.395405
H      1.391367    -3.033811    -0.861489
H      1.939666    -2.169610     0.267770

units ang
no_reorient
no_com
symmetry c1
}

set {
basis        aug-cc-pVTZ
scf_type     df
}

energy("sapt2+")
--------------------------------------------------------------------------

  //              Dimer HF             //
    Molecular point group: c1
  Charge       = 1
  Multiplicity = 1
  Basis Set: AUG-CC-PVTZ
    Blend: AUG-CC-PVTZ
  Basis Set: (AUG-CC-PVTZ AUX)
    Blend: AUG-CC-PVTZ-JKFIT + DEF2-UNIVERSAL-JKFIT
  @DF-RHF Final Energy:  -979.40089506339120
    Total Energy =                       -979.4008950633912036
 Dipole X            :        -57.5401121           59.1273025            1.5871904
 Dipole Y            :        -44.2091917           45.6076916            1.3984999
 Dipole Z            :          1.2761319           -0.6962337            0.5798982
 Magnitude           :                                                    2.1934578
  //            Monomer A HF           //
    Molecular point group: c1
  Multiplicity = 1
  Basis Set: AUG-CC-PVTZ
    Blend: AUG-CC-PVTZ
  Basis Set: (AUG-CC-PVTZ AUX)
    Blend: AUG-CC-PVTZ-JKFIT + DEF2-UNIVERSAL-JKFIT
  @DF-RHF Final Energy:  -599.01751619048923
    Total Energy =                       -599.0175161904892320
  //            Monomer B HF           //
    Molecular point group: c1

    Geometry (in Angstrom), charge = 0, multiplicity = 1:

       Center              X                  Y                   Z               Mass
    ------------   -----------------  -----------------  -----------------  -----------------
      Gh(K)           0.000000000000     0.000000000000     0.000000000000    38.963706486400
         O            1.994248000000    -0.017398000000     1.891531000000    15.994914619570
         H            1.707381000000    -0.444684000000     2.688689000000     1.007825032230
         H            2.464755000000     0.808222000000     2.122342000000     1.007825032230
         O           -0.735496000000     2.189679000000     1.691371000000    15.994914619570
         H           -0.954476000000     2.443049000000     2.639599000000     1.007825032230
         H           -0.466618000000     3.047346000000     1.358724000000     1.007825032230
         O            1.549750000000     2.058046000000    -0.852344000000    15.994914619570
         H            1.913323000000     2.259444000000    -1.747396000000     1.007825032230
         H            2.335189000000     2.116884000000    -0.306564000000     1.007825032230
         O           -1.132510000000     0.224565000000    -2.466410000000    15.994914619570
         H           -0.537321000000     0.540552000000    -3.138504000000     1.007825032230
         H           -1.916525000000     0.761111000000    -2.341546000000     1.007825032230
         O            1.250518000000    -2.229136000000    -0.395405000000    15.994914619570
         H            1.391367000000    -3.033811000000    -0.861489000000     1.007825032230
         H            1.939666000000    -2.169610000000     0.267770000000     1.007825032230

  Charge       = 0
  Multiplicity = 1
  Basis Set: AUG-CC-PVTZ
    Blend: AUG-CC-PVTZ
  Basis Set: (AUG-CC-PVTZ AUX)
    Blend: AUG-CC-PVTZ-JKFIT + DEF2-UNIVERSAL-JKFIT

    Orbital Energies [Eh]
    ---------------------

    Doubly Occupied:

       1A    -20.553999     2A    -20.553700     3A    -20.553198
       4A    -20.530108     5A    -20.528807     6A     -1.335640
       7A     -1.330678     8A     -1.324398     9A     -1.319945
      10A     -1.315750    11A     -0.712479    12A     -0.705953
      13A     -0.690180    14A     -0.686736    15A     -0.673889
      16A     -0.570375    17A     -0.565276    18A     -0.561768
      19A     -0.544273    20A     -0.532093    21A     -0.498659
      22A     -0.492277    23A     -0.485572    24A     -0.474437
      25A     -0.473856

  @DF-RHF Final Energy:  -380.28150044522488

   => Energetics <=

    Nuclear Repulsion Energy =            174.8986655772855556
    One-Electron Energy =                -874.3322348039856706
    Two-Electron Energy =                 319.1520687814752364
    Total Energy =                       -380.2815004452248786
 Dipole X            :        -57.8711154           59.1273025            1.2561870
 Dipole Y            :        -44.3972467           45.6076916            1.2104449
 Dipole Z            :          1.3234015           -0.6962337            0.6271678
 Magnitude           :                                                    1.8537859

    SAPT Results
  --------------------------------------------------------------------------------------------------------
    Electrostatics               -111.52151595 [mEh]     -69.98080779 [kcal/mol]    -292.79969978 [kJ/mol]
      Elst10,r                   -116.99166129 [mEh]     -73.41337581 [kcal/mol]    -307.16156439 [kJ/mol]
      Elst12,r                      5.47014534 [mEh]       3.43256802 [kcal/mol]      14.36186461 [kJ/mol]

    Exchange                       42.81174428 [mEh]      26.86477513 [kcal/mol]     112.40221913 [kJ/mol]
      Exch10                       38.74551857 [mEh]      24.31317997 [kcal/mol]     101.72634498 [kJ/mol]
      Exch10(S^2)                  38.64555412 [mEh]      24.25045133 [kcal/mol]     101.46388836 [kJ/mol]
      Exch11(S^2)                  -0.27563283 [mEh]      -0.17296221 [kcal/mol]      -0.72367390 [kJ/mol]
      Exch12(S^2)                   4.34185855 [mEh]       2.72455737 [kcal/mol]      11.39954805 [kJ/mol]

    Induction                     -27.47918133 [mEh]     -17.24344662 [kcal/mol]     -72.14658065 [kJ/mol]
      Ind20,r                     -49.69028807 [mEh]     -31.18112652 [kcal/mol]    -130.46183335 [kJ/mol]
      Ind22                        -8.52225600 [mEh]      -5.34779638 [kcal/mol]     -22.37518005 [kJ/mol]
      Exch-Ind20,r                 27.26038346 [mEh]      17.10614888 [kcal/mol]      71.57212692 [kJ/mol]
      Exch-Ind22                    4.67535962 [mEh]       2.93383246 [kcal/mol]      12.27515500 [kJ/mol]
      delta HF,r (2)               -1.20238035 [mEh]      -0.75450506 [kcal/mol]      -3.15684917 [kJ/mol]

    Dispersion                    -10.28993297 [mEh]      -6.45703042 [kcal/mol]     -27.01621528 [kJ/mol]
      Disp20                      -12.08827903 [mEh]      -7.58550961 [kcal/mol]     -31.73777221 [kJ/mol]
      Disp21                        1.70229433 [mEh]       1.06820582 [kcal/mol]       4.46937314 [kJ/mol]
      Disp22 (SDQ)                 -0.13698743 [mEh]      -0.08596091 [kcal/mol]      -0.35966046 [kJ/mol]
      Disp22 (T)                   -1.25137114 [mEh]      -0.78524725 [kcal/mol]      -3.28547448 [kJ/mol]
      Est. Disp22 (T)              -1.35151187 [mEh]      -0.84808650 [kcal/mol]      -3.54839391 [kJ/mol]
      Exch-Disp20                   1.58455103 [mEh]       0.99432078 [kcal/mol]       4.16023816 [kJ/mol]

  Total HF                       -101.87842768 [mEh]     -63.92967854 [kcal/mol]    -267.48177502 [kJ/mol]
  Total SAPT0                    -112.38215567 [mEh]     -70.52086737 [kcal/mol]    -295.05930906 [kJ/mol]
  Total SAPT2                    -106.69268099 [mEh]     -66.95066810 [kcal/mol]    -280.12159535 [kJ/mol]
  Total SAPT2+                   -106.47888596 [mEh]     -66.81650970 [kcal/mol]    -279.56027658 [kJ/mol]

  Special recipe for scaled SAPT0 (see Manual):
    Electrostatics sSAPT0        -116.99166129 [mEh]     -73.41337581 [kcal/mol]    -307.16156439 [kJ/mol]
    Exchange sSAPT0                38.74551857 [mEh]      24.31317997 [kcal/mol]     101.72634498 [kJ/mol]
    Induction sSAPT0              -23.42019400 [mEh]     -14.69639361 [kcal/mol]     -61.48971088 [kJ/mol]
    Dispersion sSAPT0             -10.49139989 [mEh]      -6.58345282 [kcal/mol]     -27.54516661 [kJ/mol]
  Total sSAPT0                   -112.15773661 [mEh]     -70.38004228 [kcal/mol]    -294.47009690 [kJ/mol]
  --------------------------------------------------------------------------------------------------------

*** Psi4 exiting successfully. Buy a developer a beer!
