                               Psi4 1.9 release

  ==> Input File <==

--------------------------------------------------------------------------
MEMORY 60 GB

molecule dimer {
1 1
K      0.000000     0.000000     0.000000
--
0 1
O     -1.879920     2.131600     0.557926
H     -2.648079     2.548980     0.056049
H     -1.887437     2.455367     1.426203
O      1.152182     1.581044    -1.769112
H      1.909533     1.935900    -1.263555
H      1.466093     1.448690    -2.624702
O      0.223121    -2.711640     0.645294
H      0.828753    -2.906869     1.403819
H     -0.563140    -3.220153     0.851557
O      1.524854     2.013421     1.098941
H      1.225291     2.922636     1.209810
H      2.238959     2.172119     0.523577
O     -0.474255    -1.111893    -2.327802
H     -1.177610    -1.416111    -2.945593
H      0.329445    -1.642755    -2.406746
O     -2.305451    -0.792312     1.710421
H     -2.440067    -1.648183     2.196214
H     -2.692466    -0.773457     0.838942

units ang
no_reorient
no_com
symmetry c1
}

set {
basis        aug-cc-pVTZ
scf_type     df
}

energy("sapt2+")
--------------------------------------------------------------------------

  //              Dimer HF             //
    Molecular point group: c1
  Charge       = 1
  Multiplicity = 1
  Basis Set: AUG-CC-PVTZ
    Blend: AUG-CC-PVTZ
  Basis Set: (AUG-CC-PVTZ AUX)
    Blend: AUG-CC-PVTZ-JKFIT + DEF2-UNIVERSAL-JKFIT
  @DF-RHF Final Energy: -1055.44793276479800
    Total Energy =                      -1055.4479327647979972
 Dipole X            :         32.9333651          -33.0446524           -0.1112873
 Dipole Y            :        -20.4826099           20.3295300           -0.1530798
 Dipole Z            :          2.2074896           -2.6627772           -0.4552876
 Magnitude           :                                                    0.4930569
  //            Monomer A HF           //
    Molecular point group: c1
  Multiplicity = 1
  Basis Set: AUG-CC-PVTZ
    Blend: AUG-CC-PVTZ
  Basis Set: (AUG-CC-PVTZ AUX)
    Blend: AUG-CC-PVTZ-JKFIT + DEF2-UNIVERSAL-JKFIT
  @DF-RHF Final Energy:  -599.01751675976527
    Total Energy =                       -599.0175167597652717
  //            Monomer B HF           //
    Molecular point group: c1

    Geometry (in Angstrom), charge = 0, multiplicity = 1:

       Center              X                  Y                   Z               Mass
    ------------   -----------------  -----------------  -----------------  -----------------
      Gh(K)           0.000000000000     0.000000000000     0.000000000000    38.963706486400
         O           -1.879920000000     2.131600000000     0.557926000000    15.994914619570
         H           -2.648079000000     2.548980000000     0.056049000000     1.007825032230
         H           -1.887437000000     2.455367000000     1.426203000000     1.007825032230
         O            1.152182000000     1.581044000000    -1.769112000000    15.994914619570
         H            1.909533000000     1.935900000000    -1.263555000000     1.007825032230
         H            1.466093000000     1.448690000000    -2.624702000000     1.007825032230
         O            0.223121000000    -2.711640000000     0.645294000000    15.994914619570
         H            0.828753000000    -2.906869000000     1.403819000000     1.007825032230
         H           -0.563140000000    -3.220153000000     0.851557000000     1.007825032230
         O            1.524854000000     2.013421000000     1.098941000000    15.994914619570
         H            1.225291000000     2.922636000000     1.209810000000     1.007825032230
         H            2.238959000000     2.172119000000     0.523577000000     1.007825032230
         O           -0.474255000000    -1.111893000000    -2.327802000000    15.994914619570
         H           -1.177610000000    -1.416111000000    -2.945593000000     1.007825032230
         H            0.329445000000    -1.642755000000    -2.406746000000     1.007825032230
         O           -2.305451000000    -0.792312000000     1.710421000000    15.994914619570
         H           -2.440067000000    -1.648183000000     2.196214000000     1.007825032230
         H           -2.692466000000    -0.773457000000     0.838942000000     1.007825032230

  Charge       = 0
  Multiplicity = 1
  Basis Set: AUG-CC-PVTZ
    Blend: AUG-CC-PVTZ
  Basis Set: (AUG-CC-PVTZ AUX)
    Blend: AUG-CC-PVTZ-JKFIT + DEF2-UNIVERSAL-JKFIT

    Orbital Energies [Eh]
    ---------------------

    Doubly Occupied:

       1A    -20.547844     2A    -20.546068     3A    -20.535762
       4A    -20.535587     5A    -20.534460     6A    -20.533733
       7A     -1.344522     8A     -1.327543     9A     -1.323296
      10A     -1.315059    11A     -1.308383    12A     -1.307356
      13A     -0.707975    14A     -0.694387    15A     -0.690175
      16A     -0.687885    17A     -0.684144    18A     -0.680756
      19A     -0.576392    20A     -0.560267    21A     -0.552127
      22A     -0.540770    23A     -0.532501    24A     -0.530407
      25A     -0.490446    26A     -0.490129    27A     -0.481326
      28A     -0.474995    29A     -0.473080    30A     -0.469043

  @DF-RHF Final Energy:  -456.32116678672014

   => Energetics <=

    Nuclear Repulsion Energy =            246.5611806117091760
    One-Electron Energy =               -1122.8118505773691140
    Two-Electron Energy =                 419.9295031789397399
    Total Energy =                       -456.3211667867201413
 Dipole X            :         33.0616283          -33.0446524            0.0169758
 Dipole Y            :        -20.5722636           20.3295300           -0.2427335
 Dipole Z            :          2.3046045           -2.6627772           -0.3581726
 Magnitude           :                                                    0.4330074

    SAPT Results
  --------------------------------------------------------------------------------------------------------
    Electrostatics               -116.70739217 [mEh]     -73.23499425 [kcal/mol]    -306.41521592 [kJ/mol]
      Elst10,r                   -122.72491948 [mEh]     -77.01104964 [kcal/mol]    -322.21423170 [kJ/mol]
      Elst12,r                      6.01752731 [mEh]       3.77605540 [kcal/mol]      15.79901578 [kJ/mol]

    Exchange                       43.72391720 [mEh]      27.43717227 [kcal/mol]     114.79712880 [kJ/mol]
      Exch10                       39.47509821 [mEh]      24.77099810 [kcal/mol]     103.64185607 [kJ/mol]
      Exch10(S^2)                  39.36939864 [mEh]      24.70467062 [kcal/mol]     103.36434188 [kJ/mol]
      Exch11(S^2)                  -0.33976289 [mEh]      -0.21320443 [kcal/mol]      -0.89204734 [kJ/mol]
      Exch12(S^2)                   4.58858188 [mEh]       2.87937860 [kcal/mol]      12.04732007 [kJ/mol]

    Induction                     -30.33874858 [mEh]     -19.03785216 [kcal/mol]     -79.65437342 [kJ/mol]
      Ind20,r                     -52.04619770 [mEh]     -32.65948213 [kcal/mol]    -136.64727324 [kJ/mol]
      Ind22                        -9.15634631 [mEh]      -5.74569405 [kcal/mol]     -24.03998391 [kJ/mol]
      Exch-Ind20,r                 27.38060069 [mEh]      17.18158633 [kcal/mol]      71.88775721 [kJ/mol]
      Exch-Ind22                    4.81699477 [mEh]       3.02270985 [kcal/mol]      12.64701802 [kJ/mol]
      delta HF,r (2)               -1.33380003 [mEh]      -0.83697216 [kcal/mol]      -3.50189150 [kJ/mol]

    Dispersion                    -11.34013502 [mEh]      -7.11604216 [kcal/mol]     -29.77352040 [kJ/mol]
      Disp20                      -13.26933350 [mEh]      -8.32663248 [kcal/mol]     -34.83863032 [kJ/mol]
      Disp21                        1.92979660 [mEh]       1.21096565 [kcal/mol]       5.06668027 [kJ/mol]
      Disp22 (SDQ)                 -0.15925792 [mEh]      -0.09993586 [kcal/mol]      -0.41813162 [kJ/mol]
      Disp22 (T)                   -1.39790191 [mEh]      -0.87719669 [kcal/mol]      -3.67019096 [kJ/mol]
      Est. Disp22 (T)              -1.50608259 [mEh]      -0.94508109 [kcal/mol]      -3.95421928 [kJ/mol]
      Exch-Disp20                   1.66474239 [mEh]       1.04464162 [kcal/mol]       4.37078055 [kJ/mol]

  Total HF                       -109.24921831 [mEh]     -68.55491949 [kcal/mol]    -286.83378316 [kJ/mol]
  Total SAPT0                    -120.85380942 [mEh]     -75.83691036 [kcal/mol]    -317.30163293 [kJ/mol]
  Total SAPT2                    -114.92681466 [mEh]     -72.11766499 [kcal/mol]    -301.74031031 [kJ/mol]
  Total SAPT2+                   -114.66235857 [mEh]     -71.95171629 [kcal/mol]    -301.04598095 [kJ/mol]

  Special recipe for scaled SAPT0 (see Manual):
    Electrostatics sSAPT0        -122.72491948 [mEh]     -77.01104964 [kcal/mol]    -322.21423170 [kJ/mol]
    Exchange sSAPT0                39.47509821 [mEh]      24.77099810 [kcal/mol]     103.64185607 [kJ/mol]
    Induction sSAPT0              -25.77826883 [mEh]     -16.17610791 [kcal/mol]     -67.68083549 [kJ/mol]
    Dispersion sSAPT0             -11.59114650 [mEh]      -7.27355424 [kcal/mol]     -30.43255095 [kJ/mol]
  Total sSAPT0                   -120.61923660 [mEh]     -75.68971369 [kcal/mol]    -316.68576207 [kJ/mol]
  --------------------------------------------------------------------------------------------------------

*** Psi4 exiting successfully. Buy a developer a beer!
