                               Psi4 1.9 release

  ==> Input File <==

--------------------------------------------------------------------------
MEMORY 60 GB

molecule dimer {
1 1
K      0.000000     0.000000     0.000000
--
0 1
O     -1.370696     1.604479    -1.550439
H     -2.076934     1.905007    -1.017557
H     -1.553716     1.524466    -2.505073
O     -1.998737    -0.974662     1.599881
H     -2.513349    -0.187129     1.508550
H     -2.107385    -1.288235     2.520883
O      1.577216    -0.657159     1.925838
H      1.513681    -0.094488     2.713468
H      2.523881    -0.722081     1.667496
O     -0.990708    -1.602974    -1.918941
H     -0.942529    -2.440920    -1.500342
H     -0.185141    -1.605642    -2.464998
O      0.436480     2.229228     1.505701
H      0.369638     3.148405     1.178374
H      1.255062     2.186885     2.041814
O      2.765894     0.729757    -0.577149
H      3.109093     1.422939    -1.184852
H      2.919337     1.046345     0.333290

units ang
no_reorient
no_com
symmetry c1
}

set {
basis        aug-cc-pVTZ
scf_type     df
}

energy("sapt2+")
--------------------------------------------------------------------------

  //              Dimer HF             //
    Molecular point group: c1
  Charge       = 1
  Multiplicity = 1
  Basis Set: AUG-CC-PVTZ
    Blend: AUG-CC-PVTZ
  Basis Set: (AUG-CC-PVTZ AUX)
    Blend: AUG-CC-PVTZ-JKFIT + DEF2-UNIVERSAL-JKFIT
  @DF-RHF Final Energy: -1055.45069179848338
    Total Energy =                      -1055.4506917984833763
 Dipole X            :         -9.8385851           10.7095126            0.8709275
 Dipole Y            :        -27.7788722           29.3378167            1.5589445
 Dipole Z            :        -20.2270371           21.1085829            0.8815458
 Magnitude           :                                                    1.9914682
  //            Monomer A HF           //
    Molecular point group: c1
  Multiplicity = 1
  Basis Set: AUG-CC-PVTZ
    Blend: AUG-CC-PVTZ
  Basis Set: (AUG-CC-PVTZ AUX)
    Blend: AUG-CC-PVTZ-JKFIT + DEF2-UNIVERSAL-JKFIT
  @DF-RHF Final Energy:  -599.01751740612804
    Total Energy =                       -599.0175174061280359
  //            Monomer B HF           //
    Molecular point group: c1

    Geometry (in Angstrom), charge = 0, multiplicity = 1:

       Center              X                  Y                   Z               Mass
    ------------   -----------------  -----------------  -----------------  -----------------
      Gh(K)           0.000000000000     0.000000000000     0.000000000000    38.963706486400
         O           -1.370696000000     1.604479000000    -1.550439000000    15.994914619570
         H           -2.076934000000     1.905007000000    -1.017557000000     1.007825032230
         H           -1.553716000000     1.524466000000    -2.505073000000     1.007825032230
         O           -1.998737000000    -0.974662000000     1.599881000000    15.994914619570
         H           -2.513349000000    -0.187129000000     1.508550000000     1.007825032230
         H           -2.107385000000    -1.288235000000     2.520883000000     1.007825032230
         O            1.577216000000    -0.657159000000     1.925838000000    15.994914619570
         H            1.513681000000    -0.094488000000     2.713468000000     1.007825032230
         H            2.523881000000    -0.722081000000     1.667496000000     1.007825032230
         O           -0.990708000000    -1.602974000000    -1.918941000000    15.994914619570
         H           -0.942529000000    -2.440920000000    -1.500342000000     1.007825032230
         H           -0.185141000000    -1.605642000000    -2.464998000000     1.007825032230
         O            0.436480000000     2.229228000000     1.505701000000    15.994914619570
         H            0.369638000000     3.148405000000     1.178374000000     1.007825032230
         H            1.255062000000     2.186885000000     2.041814000000     1.007825032230
         O            2.765894000000     0.729757000000    -0.577149000000    15.994914619570
         H            3.109093000000     1.422939000000    -1.184852000000     1.007825032230
         H            2.919337000000     1.046345000000     0.333290000000     1.007825032230

  Charge       = 0
  Multiplicity = 1
  Basis Set: AUG-CC-PVTZ
    Blend: AUG-CC-PVTZ
  Basis Set: (AUG-CC-PVTZ AUX)
    Blend: AUG-CC-PVTZ-JKFIT + DEF2-UNIVERSAL-JKFIT

    Orbital Energies [Eh]
    ---------------------

    Doubly Occupied:

       1A    -20.559509     2A    -20.554654     3A    -20.550149
       4A    -20.535109     5A    -20.529383     6A    -20.527792
       7A     -1.331854     8A     -1.326427     9A     -1.321678
      10A     -1.317618    11A     -1.316979    12A     -1.315270
      13A     -0.709565    14A     -0.705088    15A     -0.701362
      16A     -0.688784    17A     -0.685938    18A     -0.673819
      19A     -0.565718    20A     -0.559658    21A     -0.552639
      22A     -0.551237    23A     -0.544254    24A     -0.529415
      25A     -0.502369    26A     -0.487662    27A     -0.485921
      28A     -0.476536    29A     -0.475848    30A     -0.468515

  @DF-RHF Final Energy:  -456.32996427900559

   => Energetics <=

    Nuclear Repulsion Energy =            249.3350654469577989
    One-Electron Energy =               -1128.2285432261624010
    Two-Electron Energy =                 422.5635135001990648
    Total Energy =                       -456.3299642790055941
 Dipole X            :         -9.8769694           10.7095126            0.8325432
 Dipole Y            :        -27.9368978           29.3378167            1.4009189
 Dipole Z            :        -20.3330902           21.1085829            0.7754927
 Magnitude           :                                                    1.8047412

    SAPT Results
  --------------------------------------------------------------------------------------------------------
    Electrostatics               -124.28826230 [mEh]     -77.99206207 [kcal/mol]    -326.31878771 [kJ/mol]
      Elst10,r                   -128.96888543 [mEh]     -80.92919743 [kcal/mol]    -338.60776204 [kJ/mol]
      Elst12,r                      4.68062313 [mEh]       2.93713535 [kcal/mol]      12.28897433 [kJ/mol]

    Exchange                       59.39622951 [mEh]      37.27169672 [kcal/mol]     155.94477910 [kJ/mol]
      Exch10                       53.70631537 [mEh]      33.70122169 [kcal/mol]     141.00591157 [kJ/mol]
      Exch10(S^2)                  53.53901704 [mEh]      33.59624041 [kcal/mol]     140.56666986 [kJ/mol]
      Exch11(S^2)                  -0.56667743 [mEh]      -0.35559545 [kcal/mol]      -1.48781137 [kJ/mol]
      Exch12(S^2)                   6.25659157 [mEh]       3.92607048 [kcal/mol]      16.42667891 [kJ/mol]

    Induction                     -32.91463073 [mEh]     -20.65424261 [kcal/mol]     -86.41735107 [kJ/mol]
      Ind20,r                     -65.68648921 [mEh]     -41.21889428 [kcal/mol]    -172.45985366 [kJ/mol]
      Ind22                       -12.33900420 [mEh]      -7.74284203 [kcal/mol]     -32.39605107 [kJ/mol]
      Exch-Ind20,r                 39.24427960 [mEh]      24.62615724 [kcal/mol]     103.03584190 [kJ/mol]
      Exch-Ind22                    7.37191676 [mEh]       4.62594761 [kcal/mol]      19.35496479 [kJ/mol]
      delta HF,r (2)               -1.50533368 [mEh]      -0.94461115 [kcal/mol]      -3.95225303 [kJ/mol]

    Dispersion                    -13.28266240 [mEh]      -8.33499649 [kcal/mol]     -34.87362533 [kJ/mol]
      Disp20                      -15.80105573 [mEh]      -9.91531217 [kcal/mol]     -41.48566611 [kJ/mol]
      Disp21                        2.21597297 [mEh]       1.39054403 [kcal/mol]       5.81803624 [kJ/mol]
      Disp22 (SDQ)                 -0.18575017 [mEh]      -0.11655999 [kcal/mol]      -0.48768701 [kJ/mol]
      Disp22 (T)                   -1.67496249 [mEh]      -1.05105483 [kcal/mol]      -4.39761342 [kJ/mol]
      Est. Disp22 (T)              -1.80864176 [mEh]      -1.13493984 [kcal/mol]      -4.74858829 [kJ/mol]
      Exch-Disp20                   2.29681229 [mEh]       1.44127147 [kcal/mol]       6.03027984 [kJ/mol]

  Total HF                       -103.21011335 [mEh]     -64.76532392 [kcal/mol]    -270.97811527 [kJ/mol]
  Total SAPT0                    -116.71435679 [mEh]     -73.23936461 [kcal/mol]    -306.43350153 [kJ/mol]
  Total SAPT2                    -111.31090695 [mEh]     -69.84864865 [kcal/mol]    -292.24674595 [kJ/mol]
  Total SAPT2+                   -111.08932592 [mEh]     -69.70960445 [kcal/mol]    -291.66498501 [kJ/mol]

  Special recipe for scaled SAPT0 (see Manual):
    Electrostatics sSAPT0        -128.96888543 [mEh]     -80.92919743 [kcal/mol]    -338.60776204 [kJ/mol]
    Exchange sSAPT0                53.70631537 [mEh]      33.70122169 [kcal/mol]     141.00591157 [kJ/mol]
    Induction sSAPT0              -27.57850179 [mEh]     -17.30577115 [kcal/mol]     -72.40734648 [kJ/mol]
    Dispersion sSAPT0             -13.48264490 [mEh]      -8.46048741 [kcal/mol]     -35.39867931 [kJ/mol]
  Total sSAPT0                   -116.32371676 [mEh]     -72.99423429 [kcal/mol]    -305.40787626 [kJ/mol]
  --------------------------------------------------------------------------------------------------------

*** Psi4 exiting successfully. Buy a developer a beer!
