                               Psi4 1.9 release

  ==> Input File <==

--------------------------------------------------------------------------
MEMORY 60 GB

molecule dimer {
1 1
K      0.000000     0.000000     0.000000
--
0 1
O     -1.914219     0.381099     2.047352
H     -1.320578     0.674184     2.686368
H     -2.321467    -0.319664     2.513747
O      0.428472     2.036835    -1.419653
H     -0.185122     2.755299    -1.648266
H      0.372818     1.517892    -2.257890
O      0.770031     1.249993     2.200665
H      1.009133     2.175197     2.337599
H      1.515479     0.726860     2.473995
O     -2.260178    -0.231462    -1.572764
H     -2.803882    -0.985370    -1.417875
H     -2.627539     0.547665    -1.165198
O      2.290299    -1.266372     0.334224
H      3.155079    -0.865329     0.373528
H      2.386314    -2.179876     0.539797
O     -1.344210    -2.412788     0.379287
H     -2.112438    -2.800330    -0.114885
H     -1.698340    -2.036621     1.151405

units ang
no_reorient
no_com
symmetry c1
}

set {
basis        aug-cc-pVTZ
scf_type     df
}

energy("sapt2+")
--------------------------------------------------------------------------

  //              Dimer HF             //
    Molecular point group: c1
  Charge       = 1
  Multiplicity = 1
  Basis Set: AUG-CC-PVTZ
    Blend: AUG-CC-PVTZ
  Basis Set: (AUG-CC-PVTZ AUX)
    Blend: AUG-CC-PVTZ-JKFIT + DEF2-UNIVERSAL-JKFIT
  @DF-RHF Final Energy: -1055.45806637446572
    Total Energy =                      -1055.4580663744659432
 Dipole X            :         39.1502262          -39.4366624           -0.2864361
 Dipole Y            :          5.0552015           -5.1620760           -0.1068745
 Dipole Z            :        -38.9463368           40.1098395            1.1635027
 Magnitude           :                                                    1.2029989
  //            Monomer A HF           //
    Molecular point group: c1
  Multiplicity = 1
  Basis Set: AUG-CC-PVTZ
    Blend: AUG-CC-PVTZ
  Basis Set: (AUG-CC-PVTZ AUX)
    Blend: AUG-CC-PVTZ-JKFIT + DEF2-UNIVERSAL-JKFIT
  @DF-RHF Final Energy:  -599.01751738352459
    Total Energy =                       -599.0175173835247051
  //            Monomer B HF           //
    Molecular point group: c1

    Geometry (in Angstrom), charge = 0, multiplicity = 1:

       Center              X                  Y                   Z               Mass
    ------------   -----------------  -----------------  -----------------  -----------------
      Gh(K)           0.000000000000     0.000000000000     0.000000000000    38.963706486400
         O           -1.914219000000     0.381099000000     2.047352000000    15.994914619570
         H           -1.320578000000     0.674184000000     2.686368000000     1.007825032230
         H           -2.321467000000    -0.319664000000     2.513747000000     1.007825032230
         O            0.428472000000     2.036835000000    -1.419653000000    15.994914619570
         H           -0.185122000000     2.755299000000    -1.648266000000     1.007825032230
         H            0.372818000000     1.517892000000    -2.257890000000     1.007825032230
         O            0.770031000000     1.249993000000     2.200665000000    15.994914619570
         H            1.009133000000     2.175197000000     2.337599000000     1.007825032230
         H            1.515479000000     0.726860000000     2.473995000000     1.007825032230
         O           -2.260178000000    -0.231462000000    -1.572764000000    15.994914619570
         H           -2.803882000000    -0.985370000000    -1.417875000000     1.007825032230
         H           -2.627539000000     0.547665000000    -1.165198000000     1.007825032230
         O            2.290299000000    -1.266372000000     0.334224000000    15.994914619570
         H            3.155079000000    -0.865329000000     0.373528000000     1.007825032230
         H            2.386314000000    -2.179876000000     0.539797000000     1.007825032230
         O           -1.344210000000    -2.412788000000     0.379287000000    15.994914619570
         H           -2.112438000000    -2.800330000000    -0.114885000000     1.007825032230
         H           -1.698340000000    -2.036621000000     1.151405000000     1.007825032230

  Charge       = 0
  Multiplicity = 1
  Basis Set: AUG-CC-PVTZ
    Blend: AUG-CC-PVTZ
  Basis Set: (AUG-CC-PVTZ AUX)
    Blend: AUG-CC-PVTZ-JKFIT + DEF2-UNIVERSAL-JKFIT

    Orbital Energies [Eh]
    ---------------------

    Doubly Occupied:

       1A    -20.549323     2A    -20.544109     3A    -20.543644
       4A    -20.540953     5A    -20.537966     6A    -20.532516
       7A     -1.350227     8A     -1.336037     9A     -1.334838
      10A     -1.330300    11A     -1.323935    12A     -1.313786
      13A     -0.710548    14A     -0.709183    15A     -0.706632
      16A     -0.704267    17A     -0.693420    18A     -0.662223
      19A     -0.576678    20A     -0.564473    21A     -0.559932
      22A     -0.558657    23A     -0.555479    24A     -0.543957
      25A     -0.498002    26A     -0.494698    27A     -0.488342
      28A     -0.486133    29A     -0.477247    30A     -0.469654

  @DF-RHF Final Energy:  -456.34296660842102

   => Energetics <=

    Nuclear Repulsion Energy =            253.4165574089231825
    One-Electron Energy =               -1136.1247238438786553
    Two-Electron Energy =                 426.3651998265344787
    Total Energy =                       -456.3429666084210226
 Dipole X            :         39.2875580          -39.4366624           -0.1491044
 Dipole Y            :          5.0300857           -5.1620760           -0.1319904
 Dipole Z            :        -39.0937925           40.1098395            1.0160470
 Magnitude           :                                                    1.0353768

    SAPT Results
  --------------------------------------------------------------------------------------------------------
    Electrostatics               -120.73075699 [mEh]     -75.75969379 [kcal/mol]    -316.97855880 [kJ/mol]
      Elst10,r                   -125.30308658 [mEh]     -78.62887392 [kcal/mol]    -328.98320849 [kJ/mol]
      Elst12,r                      4.57232959 [mEh]       2.86918014 [kcal/mol]      12.00464970 [kJ/mol]

    Exchange                       61.63844304 [mEh]      38.67870696 [kcal/mol]     161.83170990 [kJ/mol]
      Exch10                       55.97018060 [mEh]      35.12181858 [kcal/mol]     146.94968893 [kJ/mol]
      Exch10(S^2)                  55.81525523 [mEh]      35.02460144 [kcal/mol]     146.54293241 [kJ/mol]
      Exch11(S^2)                  -0.57882589 [mEh]      -0.36321873 [kcal/mol]      -1.51970715 [kJ/mol]
      Exch12(S^2)                   6.24708832 [mEh]       3.92010711 [kcal/mol]      16.40172813 [kJ/mol]

    Induction                     -33.13929602 [mEh]     -20.79522221 [kcal/mol]     -87.00720972 [kJ/mol]
      Ind20,r                     -66.69196696 [mEh]     -41.84984109 [kcal/mol]    -175.09973513 [kJ/mol]
      Ind22                       -12.29094465 [mEh]      -7.71268421 [kcal/mol]     -32.26987074 [kJ/mol]
      Exch-Ind20,r                 40.15928876 [mEh]      25.20033416 [kcal/mol]     105.43819811 [kJ/mol]
      Exch-Ind22                    7.40112517 [mEh]       4.64427616 [kcal/mol]      19.43165146 [kJ/mol]
      delta HF,r (2)               -1.71679834 [mEh]      -1.07730722 [kcal/mol]      -4.50745342 [kJ/mol]

    Dispersion                    -13.60009323 [mEh]      -8.53418735 [kcal/mol]     -35.70703986 [kJ/mol]
      Disp20                      -16.26137888 [mEh]     -10.20416930 [kcal/mol]     -42.69424436 [kJ/mol]
      Disp21                        2.28692539 [mEh]       1.43506735 [kcal/mol]       6.00432178 [kJ/mol]
      Disp22 (SDQ)                 -0.17173057 [mEh]      -0.10776256 [kcal/mol]      -0.45087856 [kJ/mol]
      Disp22 (T)                   -1.70431765 [mEh]      -1.06947547 [kcal/mol]      -4.47468538 [kJ/mol]
      Est. Disp22 (T)              -1.83806389 [mEh]      -1.15340250 [kcal/mol]      -4.82583607 [kJ/mol]
      Exch-Disp20                   2.38415472 [mEh]       1.49607967 [kcal/mol]       6.25959736 [kJ/mol]

  Total HF                        -97.58238252 [mEh]     -61.23386951 [kcal/mol]    -256.20251001 [kJ/mol]
  Total SAPT0                    -111.45960668 [mEh]     -69.94195913 [kcal/mol]    -292.63715701 [kJ/mol]
  Total SAPT2                    -106.10883413 [mEh]     -66.58429867 [kcal/mol]    -278.58870562 [kJ/mol]
  Total SAPT2+                   -105.83170320 [mEh]     -66.41039639 [kcal/mol]    -277.86109848 [kJ/mol]

  Special recipe for scaled SAPT0 (see Manual):
    Electrostatics sSAPT0        -125.30308658 [mEh]     -78.62887392 [kcal/mol]    -328.98320849 [kJ/mol]
    Exchange sSAPT0                55.97018060 [mEh]      35.12181858 [kcal/mol]     146.94968893 [kJ/mol]
    Induction sSAPT0              -27.91413928 [mEh]     -17.51638685 [kcal/mol]     -73.28856259 [kJ/mol]
    Dispersion sSAPT0             -13.85731604 [mEh]      -8.69559709 [kcal/mol]     -36.38237825 [kJ/mol]
  Total sSAPT0                   -111.10436130 [mEh]     -69.71903929 [kcal/mol]    -291.70446041 [kJ/mol]
  --------------------------------------------------------------------------------------------------------

*** Psi4 exiting successfully. Buy a developer a beer!
