                               Psi4 1.9 release

  ==> Input File <==

--------------------------------------------------------------------------
MEMORY 60 GB

molecule dimer {
1 1
K      0.000000     0.000000     0.000000
--
0 1
O     -0.347802    -2.893565    -0.197304
H     -0.264219    -2.627410    -1.107839
H     -1.076793    -3.520369    -0.191568
O      0.677953     2.028113    -2.098824
H      1.086568     2.053260    -2.956022
H     -0.287647     1.928353    -2.270876
O      0.133021    -0.422807     2.580598
H      0.877410    -0.317211     3.203899
H     -0.629250     0.024130     3.083095
O     -2.438966     0.372415     0.851527
H     -2.595398     1.157685     1.350948
H     -3.271474     0.106554     0.425933
O     -2.066921     1.281430    -1.668738
H     -2.570671     0.992410    -2.390640
H     -2.616813     1.957975    -1.327306
O      0.369724    -1.327390    -2.368648
H     -0.386802    -1.039991    -2.929204
H      1.195348    -0.840736    -2.656566

units ang
no_reorient
no_com
symmetry c1
}

set {
basis        aug-cc-pVTZ
scf_type     df
}

energy("sapt2+")
--------------------------------------------------------------------------

  //              Dimer HF             //
    Molecular point group: c1
  Charge       = 1
  Multiplicity = 1
  Basis Set: AUG-CC-PVTZ
    Blend: AUG-CC-PVTZ
  Basis Set: (AUG-CC-PVTZ AUX)
    Blend: AUG-CC-PVTZ-JKFIT + DEF2-UNIVERSAL-JKFIT
  @DF-RHF Final Energy: -1055.44783352164131
    Total Energy =                      -1055.4478335216413143
 Dipole X            :         72.9717880          -75.4448003           -2.4730123
 Dipole Y            :         15.9406449          -14.7772463            1.1633985
 Dipole Z            :         57.1098871          -58.5385337           -1.4286467
 Magnitude           :                                                    3.0838803
  //            Monomer A HF           //
    Molecular point group: c1
  Multiplicity = 1
  Basis Set: AUG-CC-PVTZ
    Blend: AUG-CC-PVTZ
  Basis Set: (AUG-CC-PVTZ AUX)
    Blend: AUG-CC-PVTZ-JKFIT + DEF2-UNIVERSAL-JKFIT
  @DF-RHF Final Energy:  -599.01751672523199
    Total Energy =                       -599.0175167252318715
  //            Monomer B HF           //
    Molecular point group: c1

    Geometry (in Angstrom), charge = 0, multiplicity = 1:

       Center              X                  Y                   Z               Mass
    ------------   -----------------  -----------------  -----------------  -----------------
      Gh(K)           0.000000000000     0.000000000000     0.000000000000    38.963706486400
         O           -0.347802000000    -2.893565000000    -0.197304000000    15.994914619570
         H           -0.264219000000    -2.627410000000    -1.107839000000     1.007825032230
         H           -1.076793000000    -3.520369000000    -0.191568000000     1.007825032230
         O            0.677953000000     2.028113000000    -2.098824000000    15.994914619570
         H            1.086568000000     2.053260000000    -2.956022000000     1.007825032230
         H           -0.287647000000     1.928353000000    -2.270876000000     1.007825032230
         O            0.133021000000    -0.422807000000     2.580598000000    15.994914619570
         H            0.877410000000    -0.317211000000     3.203899000000     1.007825032230
         H           -0.629250000000     0.024130000000     3.083095000000     1.007825032230
         O           -2.438966000000     0.372415000000     0.851527000000    15.994914619570
         H           -2.595398000000     1.157685000000     1.350948000000     1.007825032230
         H           -3.271474000000     0.106554000000     0.425933000000     1.007825032230
         O           -2.066921000000     1.281430000000    -1.668738000000    15.994914619570
         H           -2.570671000000     0.992410000000    -2.390640000000     1.007825032230
         H           -2.616813000000     1.957975000000    -1.327306000000     1.007825032230
         O            0.369724000000    -1.327390000000    -2.368648000000    15.994914619570
         H           -0.386802000000    -1.039991000000    -2.929204000000     1.007825032230
         H            1.195348000000    -0.840736000000    -2.656566000000     1.007825032230

  Charge       = 0
  Multiplicity = 1
  Basis Set: AUG-CC-PVTZ
    Blend: AUG-CC-PVTZ
  Basis Set: (AUG-CC-PVTZ AUX)
    Blend: AUG-CC-PVTZ-JKFIT + DEF2-UNIVERSAL-JKFIT

    Orbital Energies [Eh]
    ---------------------

    Doubly Occupied:

       1A    -20.578588     2A    -20.562818     3A    -20.545512
       4A    -20.538256     5A    -20.537438     6A    -20.505330
       7A     -1.389571     8A     -1.332845     9A     -1.329457
      10A     -1.320374    11A     -1.297955    12A     -1.293649
      13A     -0.742689    14A     -0.708069    15A     -0.702628
      16A     -0.693970    17A     -0.668309    18A     -0.654239
      19A     -0.611517    20A     -0.564584    21A     -0.559414
      22A     -0.554732    23A     -0.540312    24A     -0.532877
      25A     -0.521199    26A     -0.502659    27A     -0.480826
      28A     -0.478922    29A     -0.469176    30A     -0.449860

  @DF-RHF Final Energy:  -456.33060081458007

   => Energetics <=

    Nuclear Repulsion Energy =            256.0612669360376685
    One-Electron Energy =               -1141.4481775590238612
    Two-Electron Energy =                 429.0563098084061266
    Total Energy =                       -456.3306008145800661
 Dipole X            :         73.3425989          -75.4448003           -2.1022014
 Dipole Y            :         16.0398045          -14.7772463            1.2625582
 Dipole Z            :         57.2222766          -58.5385337           -1.3162571
 Magnitude           :                                                    2.7831344

    SAPT Results
  --------------------------------------------------------------------------------------------------------
    Electrostatics               -108.04788694 [mEh]     -67.80107268 [kcal/mol]    -283.67968808 [kJ/mol]
      Elst10,r                   -113.14896104 [mEh]     -71.00204500 [kcal/mol]    -297.07255627 [kJ/mol]
      Elst12,r                      5.10107409 [mEh]       3.20097232 [kcal/mol]      13.39286819 [kJ/mol]

    Exchange                       43.28668164 [mEh]      27.16280282 [kcal/mol]     113.64916698 [kJ/mol]
      Exch10                       38.90705129 [mEh]      24.41454328 [kcal/mol]     102.15044909 [kJ/mol]
      Exch10(S^2)                  38.78681849 [mEh]      24.33909606 [kcal/mol]     101.83477792 [kJ/mol]
      Exch11(S^2)                  -0.30865434 [mEh]      -0.19368352 [kcal/mol]      -0.81037186 [kJ/mol]
      Exch12(S^2)                   4.68828469 [mEh]       2.94194306 [kcal/mol]      12.30908976 [kJ/mol]

    Induction                     -29.82664211 [mEh]     -18.71650049 [kcal/mol]     -78.30983807 [kJ/mol]
      Ind20,r                     -51.91153380 [mEh]     -32.57497926 [kcal/mol]    -136.29371321 [kJ/mol]
      Ind22                        -9.41331389 [mEh]      -5.90694364 [kcal/mol]     -24.71465221 [kJ/mol]
      Exch-Ind20,r                 27.90844746 [mEh]      17.51281518 [kcal/mol]      73.27361870 [kJ/mol]
      Exch-Ind22                    5.06074386 [mEh]       3.17566472 [kcal/mol]      13.28698118 [kJ/mol]
      delta HF,r (2)               -1.47098574 [mEh]      -0.92305749 [kcal/mol]      -3.86207253 [kJ/mol]

    Dispersion                    -11.10266463 [mEh]      -6.96702724 [kcal/mol]     -29.15004196 [kJ/mol]
      Disp20                      -13.00247887 [mEh]      -8.15917868 [kcal/mol]     -34.13800358 [kJ/mol]
      Disp21                        1.93935374 [mEh]       1.21696285 [kcal/mol]       5.09177255 [kJ/mol]
      Disp22 (SDQ)                 -0.19366288 [mEh]      -0.12152529 [kcal/mol]      -0.50846183 [kJ/mol]
      Disp22 (T)                   -1.38464252 [mEh]      -0.86887630 [kcal/mol]      -3.63537843 [kJ/mol]
      Est. Disp22 (T)              -1.48954316 [mEh]      -0.93470244 [kcal/mol]      -3.91079503 [kJ/mol]
      Exch-Disp20                   1.64366655 [mEh]       1.03141633 [kcal/mol]       4.31544592 [kJ/mol]

  Total HF                        -99.71598183 [mEh]     -62.57272328 [kcal/mol]    -261.80427422 [kJ/mol]
  Total SAPT0                    -111.07479416 [mEh]     -69.70048563 [kcal/mol]    -291.62683188 [kJ/mol]
  Total SAPT2                    -105.94665974 [mEh]     -66.48253270 [kcal/mol]    -278.16291683 [kJ/mol]
  Total SAPT2+                   -105.69051204 [mEh]     -66.32179759 [kcal/mol]    -277.49040113 [kJ/mol]

  Special recipe for scaled SAPT0 (see Manual):
    Electrostatics sSAPT0        -113.14896104 [mEh]     -71.00204500 [kcal/mol]    -297.07255627 [kJ/mol]
    Exchange sSAPT0                38.90705129 [mEh]      24.41454328 [kcal/mol]     102.15044909 [kJ/mol]
    Induction sSAPT0              -25.21373186 [mEh]     -15.82185561 [kcal/mol]     -66.19864389 [kJ/mol]
    Dispersion sSAPT0             -11.34347960 [mEh]      -7.11814092 [kcal/mol]     -29.78230160 [kJ/mol]
  Total sSAPT0                   -110.79912121 [mEh]     -69.52749825 [kcal/mol]    -290.90305267 [kJ/mol]
  --------------------------------------------------------------------------------------------------------

*** Psi4 exiting successfully. Buy a developer a beer!
