                               Psi4 1.9 release

  ==> Input File <==

--------------------------------------------------------------------------
MEMORY 60 GB

molecule dimer {
1 1
K      0.000000     0.000000     0.000000
--
0 1
O     -1.202188     2.642841     0.692677
H     -0.359877     2.846537     0.288544
H     -1.204085     2.921992     1.633837
O     -1.785275    -1.619405     1.542860
H     -1.608427    -2.541342     1.315844
H     -2.705446    -1.468932     1.288631
O      0.144826     0.555459     2.652150
H     -0.007468     1.382754     3.068522
H      0.885053     0.138197     3.140295
O      0.561667     0.361770    -2.784131
H      0.458919    -0.179426    -3.508356
H      0.977542     1.097592    -3.183885
O      1.915812    -1.620111     0.708210
H      2.736568    -1.603689     1.185820
H      2.168479    -1.743309    -0.203061
O      1.244176     2.226543    -0.413552
H      1.113277     2.980785    -0.948090
H      2.029386     2.478591     0.106543

units ang
no_reorient
no_com
symmetry c1
}

set {
basis        aug-cc-pVTZ
scf_type     df
}

energy("sapt2+")
--------------------------------------------------------------------------

  //              Dimer HF             //
    Molecular point group: c1
  Charge       = 1
  Multiplicity = 1
  Basis Set: AUG-CC-PVTZ
    Blend: AUG-CC-PVTZ
  Basis Set: (AUG-CC-PVTZ AUX)
    Blend: AUG-CC-PVTZ-JKFIT + DEF2-UNIVERSAL-JKFIT
  @DF-RHF Final Energy: -1055.45419689385335
    Total Energy =                      -1055.4541968938533500
 Dipole X            :        -19.6845433           21.7622089            2.0776656
 Dipole Y            :        -49.5689753           50.4302254            0.8612501
 Dipole Z            :        -44.4517376           44.1635723           -0.2881653
 Magnitude           :                                                    2.2674843
  //            Monomer A HF           //
    Molecular point group: c1
  Multiplicity = 1
  Basis Set: AUG-CC-PVTZ
    Blend: AUG-CC-PVTZ
  Basis Set: (AUG-CC-PVTZ AUX)
    Blend: AUG-CC-PVTZ-JKFIT + DEF2-UNIVERSAL-JKFIT
  @DF-RHF Final Energy:  -599.01751693462734
    Total Energy =                       -599.0175169346272241
  //            Monomer B HF           //
    Molecular point group: c1

    Geometry (in Angstrom), charge = 0, multiplicity = 1:

       Center              X                  Y                   Z               Mass
    ------------   -----------------  -----------------  -----------------  -----------------
      Gh(K)           0.000000000000     0.000000000000     0.000000000000    38.963706486400
         O           -1.202188000000     2.642841000000     0.692677000000    15.994914619570
         H           -0.359877000000     2.846537000000     0.288544000000     1.007825032230
         H           -1.204085000000     2.921992000000     1.633837000000     1.007825032230
         O           -1.785275000000    -1.619405000000     1.542860000000    15.994914619570
         H           -1.608427000000    -2.541342000000     1.315844000000     1.007825032230
         H           -2.705446000000    -1.468932000000     1.288631000000     1.007825032230
         O            0.144826000000     0.555459000000     2.652150000000    15.994914619570
         H           -0.007468000000     1.382754000000     3.068522000000     1.007825032230
         H            0.885053000000     0.138197000000     3.140295000000     1.007825032230
         O            0.561667000000     0.361770000000    -2.784131000000    15.994914619570
         H            0.458919000000    -0.179426000000    -3.508356000000     1.007825032230
         H            0.977542000000     1.097592000000    -3.183885000000     1.007825032230
         O            1.915812000000    -1.620111000000     0.708210000000    15.994914619570
         H            2.736568000000    -1.603689000000     1.185820000000     1.007825032230
         H            2.168479000000    -1.743309000000    -0.203061000000     1.007825032230
         O            1.244176000000     2.226543000000    -0.413552000000    15.994914619570
         H            1.113277000000     2.980785000000    -0.948090000000     1.007825032230
         H            2.029386000000     2.478591000000     0.106543000000     1.007825032230

  Charge       = 0
  Multiplicity = 1
  Basis Set: AUG-CC-PVTZ
    Blend: AUG-CC-PVTZ
  Basis Set: (AUG-CC-PVTZ AUX)
    Blend: AUG-CC-PVTZ-JKFIT + DEF2-UNIVERSAL-JKFIT

    Orbital Energies [Eh]
    ---------------------

    Doubly Occupied:

       1A    -20.569500     2A    -20.546757     3A    -20.542210
       4A    -20.527573     5A    -20.524001     6A    -20.514900
       7A     -1.365245     8A     -1.360127     9A     -1.332547
      10A     -1.313013    11A     -1.304006    12A     -1.295509
      13A     -0.723317    14A     -0.712188    15A     -0.697800
      16A     -0.684179    17A     -0.676706    18A     -0.669637
      19A     -0.592611    20A     -0.579030    21A     -0.560405
      22A     -0.545395    23A     -0.538914    24A     -0.527032
      25A     -0.501296    26A     -0.497297    27A     -0.486555
      28A     -0.469858    29A     -0.463730    30A     -0.455326

  @DF-RHF Final Energy:  -456.33081705921256

   => Energetics <=

    Nuclear Repulsion Energy =            252.7078975421881069
    One-Electron Energy =               -1134.9240919523690536
    Two-Electron Energy =                 425.8853773509683833
    Total Energy =                       -456.3308170592125634
 Dipole X            :        -19.8543742           21.7622089            1.9078347
 Dipole Y            :        -49.7916453           50.4302254            0.6385800
 Dipole Z            :        -44.7280622           44.1635723           -0.5644899
 Magnitude           :                                                    2.0895614

    SAPT Results
  --------------------------------------------------------------------------------------------------------
    Electrostatics               -115.00768233 [mEh]     -72.16841022 [kcal/mol]    -301.95262837 [kJ/mol]
      Elst10,r                   -120.94060871 [mEh]     -75.89137773 [kcal/mol]    -317.52952442 [kJ/mol]
      Elst12,r                      5.93292638 [mEh]       3.72296751 [kcal/mol]      15.57689606 [kJ/mol]

    Exchange                       45.83155127 [mEh]      28.75973262 [kcal/mol]     120.33072128 [kJ/mol]
      Exch10                       41.51015222 [mEh]      26.04801377 [kcal/mol]     108.98488963 [kJ/mol]
      Exch10(S^2)                  41.39036142 [mEh]      25.97284391 [kcal/mol]     108.67037893 [kJ/mol]
      Exch11(S^2)                  -0.34604542 [mEh]      -0.21714678 [kcal/mol]      -0.90854212 [kJ/mol]
      Exch12(S^2)                   4.66744447 [mEh]       2.92886563 [kcal/mol]      12.25437378 [kJ/mol]

    Induction                     -30.75635548 [mEh]     -19.29990444 [kcal/mol]     -80.75080020 [kJ/mol]
      Ind20,r                     -52.66605577 [mEh]     -33.04844894 [kcal/mol]    -138.27471037 [kJ/mol]
      Ind22                        -9.16667923 [mEh]      -5.75217806 [kcal/mol]     -24.06711302 [kJ/mol]
      Exch-Ind20,r                 27.82353834 [mEh]      17.45953390 [kcal/mol]      73.05068985 [kJ/mol]
      Exch-Ind22                    4.84276727 [mEh]       3.03888234 [kcal/mol]      12.71468372 [kJ/mol]
      delta HF,r (2)               -1.58992609 [mEh]      -0.99769369 [kcal/mol]      -4.17435038 [kJ/mol]

    Dispersion                    -11.68649210 [mEh]      -7.33338451 [kcal/mol]     -30.68288079 [kJ/mol]
      Disp20                      -13.71492499 [mEh]      -8.60624537 [kcal/mol]     -36.00853061 [kJ/mol]
      Disp21                        2.02747128 [mEh]       1.27225744 [kcal/mol]       5.32312511 [kJ/mol]
      Disp22 (SDQ)                 -0.18851587 [mEh]      -0.11829550 [kcal/mol]      -0.49494835 [kJ/mol]
      Disp22 (T)                   -1.43742232 [mEh]      -0.90199612 [kcal/mol]      -3.77395177 [kJ/mol]
      Est. Disp22 (T)              -1.54825159 [mEh]      -0.97154254 [kcal/mol]      -4.06493399 [kJ/mol]
      Exch-Disp20                   1.73772907 [mEh]       1.09044146 [kcal/mol]       4.56240705 [kJ/mol]

  Total HF                       -105.86290001 [mEh]     -66.42997268 [kcal/mol]    -277.94300569 [kJ/mol]
  Total SAPT0                    -117.84009594 [mEh]     -73.94577659 [kcal/mol]    -309.38912925 [kJ/mol]
  Total SAPT2                    -111.90968247 [mEh]     -70.22438596 [kcal/mol]    -293.81883084 [kJ/mol]
  Total SAPT2+                   -111.61897865 [mEh]     -70.04196656 [kcal/mol]    -293.05558807 [kJ/mol]

  Special recipe for scaled SAPT0 (see Manual):
    Electrostatics sSAPT0        -120.94060871 [mEh]     -75.89137773 [kcal/mol]    -317.52952442 [kJ/mol]
    Exchange sSAPT0                41.51015222 [mEh]      26.04801377 [kcal/mol]     108.98488963 [kJ/mol]
    Induction sSAPT0              -26.19016542 [mEh]     -16.43457692 [kcal/mol]     -68.76226983 [kJ/mol]
    Dispersion sSAPT0             -11.96206436 [mEh]      -7.50630871 [kcal/mol]     -31.40639564 [kJ/mol]
  Total sSAPT0                   -117.58268627 [mEh]     -73.78424958 [kcal/mol]    -308.71330026 [kJ/mol]
  --------------------------------------------------------------------------------------------------------

*** Psi4 exiting successfully. Buy a developer a beer!
