                               Psi4 1.9 release

  ==> Input File <==

--------------------------------------------------------------------------
MEMORY 60 GB

molecule dimer {
1 1
K      0.000000     0.000000     0.000000
--
0 1
O      2.396279     0.775608    -0.451841
H      2.861485     0.358524    -1.212679
H      2.964841     0.677780     0.338905
O     -0.804734     2.543152     1.001045
H     -0.610352     3.441400     0.770337
H     -0.791853     2.593161     1.934941
O      1.230894    -1.869188    -1.275336
H      1.585639    -1.664232    -2.153730
H      1.204694    -2.795554    -1.187042
O     -1.211205     1.758805    -1.667366
H     -1.911099     2.172143    -1.102733
H     -0.856874     2.386555    -2.247478
O      0.894477    -0.492812     2.544623
H      1.829653    -0.334025     2.571714
H      0.668104    -0.888251     3.434370
O     -1.983101    -1.526150     1.175537
H     -2.303839    -1.002062     1.943197
H     -1.706738    -2.417397     1.491046

units ang
no_reorient
no_com
symmetry c1
}

set {
basis        aug-cc-pVTZ
scf_type     df
}

energy("sapt2+")
--------------------------------------------------------------------------

  //              Dimer HF             //
    Molecular point group: c1
  Charge       = 1
  Multiplicity = 1
  Basis Set: AUG-CC-PVTZ
    Blend: AUG-CC-PVTZ
  Basis Set: (AUG-CC-PVTZ AUX)
    Blend: AUG-CC-PVTZ-JKFIT + DEF2-UNIVERSAL-JKFIT
  @DF-RHF Final Energy: -1055.45994384684786
    Total Energy =                      -1055.4599438468476365
 Dipole X            :        -12.0796394           13.4445340            1.3648946
 Dipole Y            :        -22.6466236           22.7586558            0.1120322
 Dipole Z            :        -27.3485423           28.7127709            1.3642285
 Magnitude           :                                                    1.9330308
  //            Monomer A HF           //
    Molecular point group: c1
  Multiplicity = 1
  Basis Set: AUG-CC-PVTZ
    Blend: AUG-CC-PVTZ
  Basis Set: (AUG-CC-PVTZ AUX)
    Blend: AUG-CC-PVTZ-JKFIT + DEF2-UNIVERSAL-JKFIT
  @DF-RHF Final Energy:  -599.01751724815460
    Total Energy =                       -599.0175172481544905
  //            Monomer B HF           //
    Molecular point group: c1

    Geometry (in Angstrom), charge = 0, multiplicity = 1:

       Center              X                  Y                   Z               Mass
    ------------   -----------------  -----------------  -----------------  -----------------
      Gh(K)           0.000000000000     0.000000000000     0.000000000000    38.963706486400
         O            2.396279000000     0.775608000000    -0.451841000000    15.994914619570
         H            2.861485000000     0.358524000000    -1.212679000000     1.007825032230
         H            2.964841000000     0.677780000000     0.338905000000     1.007825032230
         O           -0.804734000000     2.543152000000     1.001045000000    15.994914619570
         H           -0.610352000000     3.441400000000     0.770337000000     1.007825032230
         H           -0.791853000000     2.593161000000     1.934941000000     1.007825032230
         O            1.230894000000    -1.869188000000    -1.275336000000    15.994914619570
         H            1.585639000000    -1.664232000000    -2.153730000000     1.007825032230
         H            1.204694000000    -2.795554000000    -1.187042000000     1.007825032230
         O           -1.211205000000     1.758805000000    -1.667366000000    15.994914619570
         H           -1.911099000000     2.172143000000    -1.102733000000     1.007825032230
         H           -0.856874000000     2.386555000000    -2.247478000000     1.007825032230
         O            0.894477000000    -0.492812000000     2.544623000000    15.994914619570
         H            1.829653000000    -0.334025000000     2.571714000000     1.007825032230
         H            0.668104000000    -0.888251000000     3.434370000000     1.007825032230
         O           -1.983101000000    -1.526150000000     1.175537000000    15.994914619570
         H           -2.303839000000    -1.002062000000     1.943197000000     1.007825032230
         H           -1.706738000000    -2.417397000000     1.491046000000     1.007825032230

  Charge       = 0
  Multiplicity = 1
  Basis Set: AUG-CC-PVTZ
    Blend: AUG-CC-PVTZ
  Basis Set: (AUG-CC-PVTZ AUX)
    Blend: AUG-CC-PVTZ-JKFIT + DEF2-UNIVERSAL-JKFIT

    Orbital Energies [Eh]
    ---------------------

    Doubly Occupied:

       1A    -20.554068     2A    -20.540360     3A    -20.537250
       4A    -20.536388     5A    -20.535196     6A    -20.514675
       7A     -1.340472     8A     -1.329089     9A     -1.327868
      10A     -1.306518    11A     -1.302431    12A     -1.301953
      13A     -0.702490    14A     -0.696523    15A     -0.695351
      16A     -0.679644    17A     -0.677884    18A     -0.676720
      19A     -0.569314    20A     -0.561044    21A     -0.549657
      22A     -0.539013    23A     -0.535069    24A     -0.523728
      25A     -0.492889    26A     -0.486394    27A     -0.485077
      28A     -0.470387    29A     -0.468567    30A     -0.457222

  @DF-RHF Final Energy:  -456.32433353685047

   => Energetics <=

    Nuclear Repulsion Energy =            248.7710927755574630
    One-Electron Energy =               -1127.4043612902382847
    Two-Electron Energy =                 422.3089349778303472
    Total Energy =                       -456.3243335368504745
 Dipole X            :        -12.2291836           13.4445340            1.2153504
 Dipole Y            :        -22.7036132           22.7586558            0.0550426
 Dipole Z            :        -27.4549652           28.7127709            1.2578057
 Magnitude           :                                                    1.7499089

    SAPT Results
  --------------------------------------------------------------------------------------------------------
    Electrostatics               -135.23443029 [mEh]     -84.86088619 [kcal/mol]    -355.05794780 [kJ/mol]
      Elst10,r                   -142.16461235 [mEh]     -89.20964108 [kcal/mol]    -373.25313830 [kJ/mol]
      Elst12,r                      6.93018206 [mEh]       4.34875490 [kcal/mol]      18.19519050 [kJ/mol]

    Exchange                       57.12943412 [mEh]      35.84926114 [kcal/mol]     149.99330861 [kJ/mol]
      Exch10                       52.17494281 [mEh]      32.74027091 [kcal/mol]     136.98529348 [kJ/mol]
      Exch10(S^2)                  52.02034317 [mEh]      32.64325817 [kcal/mol]     136.57939218 [kJ/mol]
      Exch11(S^2)                  -0.50683576 [mEh]      -0.31804424 [kcal/mol]      -1.33069711 [kJ/mol]
      Exch12(S^2)                   5.46132707 [mEh]       3.42703447 [kcal/mol]      14.33871224 [kJ/mol]

    Induction                     -32.74466805 [mEh]     -20.54758941 [kcal/mol]     -85.97111411 [kJ/mol]
      Ind20,r                     -62.27906220 [mEh]     -39.08070155 [kcal/mol]    -163.51365527 [kJ/mol]
      Ind22                       -10.84012609 [mEh]      -6.80228182 [kcal/mol]     -28.46074712 [kJ/mol]
      Exch-Ind20,r                 35.61384649 [mEh]      22.34802607 [kcal/mol]      93.50414107 [kJ/mol]
      Exch-Ind22                    6.19885035 [mEh]       3.88983732 [kcal/mol]      16.27507935 [kJ/mol]
      delta HF,r (2)               -1.43817660 [mEh]      -0.90246944 [kcal/mol]      -3.77593214 [kJ/mol]

    Dispersion                    -13.09416090 [mEh]      -8.21671001 [kcal/mol]     -34.37871470 [kJ/mol]
      Disp20                      -15.62445571 [mEh]      -9.80449398 [kcal/mol]     -41.02200282 [kJ/mol]
      Disp21                        2.27884410 [mEh]       1.42999626 [kcal/mol]       5.98310436 [kJ/mol]
      Disp22 (SDQ)                 -0.17712135 [mEh]      -0.11114532 [kcal/mol]      -0.46503204 [kJ/mol]
      Disp22 (T)                   -1.63235149 [mEh]      -1.02431602 [kcal/mol]      -4.28573825 [kJ/mol]
      Est. Disp22 (T)              -1.75848167 [mEh]      -1.10346391 [kcal/mol]      -4.61689298 [kJ/mol]
      Exch-Disp20                   2.18705373 [mEh]       1.37239694 [kcal/mol]       5.74210879 [kJ/mol]

  Total HF                       -118.09306184 [mEh]     -74.10451509 [kcal/mol]    -310.05329115 [kJ/mol]
  Total SAPT0                    -131.53046382 [mEh]     -82.53661214 [kcal/mol]    -345.33318519 [kJ/mol]
  Total SAPT2                    -124.28706619 [mEh]     -77.99131151 [kcal/mol]    -326.31564734 [kJ/mol]
  Total SAPT2+                   -123.94382511 [mEh]     -77.77592447 [kcal/mol]    -325.41446800 [kJ/mol]

  Special recipe for scaled SAPT0 (see Manual):
    Electrostatics sSAPT0        -142.16461235 [mEh]     -89.20964108 [kcal/mol]    -373.25313830 [kJ/mol]
    Exchange sSAPT0                52.17494281 [mEh]      32.74027091 [kcal/mol]     136.98529348 [kJ/mol]
    Induction sSAPT0              -27.78492457 [mEh]     -17.43530339 [kcal/mol]     -72.94930940 [kJ/mol]
    Dispersion sSAPT0             -13.41784481 [mEh]      -8.41982474 [kcal/mol]     -35.22854669 [kJ/mol]
  Total sSAPT0                   -131.19243891 [mEh]     -82.32449831 [kcal/mol]    -344.44570091 [kJ/mol]
  --------------------------------------------------------------------------------------------------------

*** Psi4 exiting successfully. Buy a developer a beer!
