                               Psi4 1.9 release

  ==> Input File <==

--------------------------------------------------------------------------
MEMORY 60 GB

molecule dimer {
1 1
K      0.000000     0.000000     0.000000
--
0 1
O      2.210706     1.169674     1.148820
H      2.542276     0.564502     1.883025
H      2.469189     2.058712     1.390268
O     -0.157161     0.568570    -2.648263
H      0.654664     1.115551    -2.877620
H     -0.061308    -0.316781    -3.128151
O      1.720062    -1.820533    -1.495334
H      1.720440    -2.330188    -2.342644
H      2.311599    -2.331956    -0.890084
O     -1.760100     1.823148     0.416399
H     -1.645011     2.388567     1.190595
H     -1.171767     2.247211    -0.232701
O      0.101240    -2.179944     1.333505
H     -0.422830    -2.543391     0.610743
H      1.012164    -2.546319     1.146336

units ang
no_reorient
no_com
symmetry c1
}

set {
basis        aug-cc-pVTZ
scf_type     df
}

energy("sapt2+")
--------------------------------------------------------------------------

  //              Dimer HF             //
    Molecular point group: c1
  Charge       = 1
  Multiplicity = 1
  Basis Set: AUG-CC-PVTZ
    Blend: AUG-CC-PVTZ
  Basis Set: (AUG-CC-PVTZ AUX)
    Blend: AUG-CC-PVTZ-JKFIT + DEF2-UNIVERSAL-JKFIT
  @DF-RHF Final Energy:  -979.36487491217736
    Total Energy =                       -979.3648749121773562
 Dipole X            :        -43.7060272           45.9721082            2.2660811
 Dipole Y            :          9.3033612           -9.8393731           -0.5360119
 Dipole Z            :         24.3973578          -24.9618025           -0.5644447
 Magnitude           :                                                    2.3960446
  //            Monomer A HF           //
    Molecular point group: c1
  Multiplicity = 1
  Basis Set: AUG-CC-PVTZ
    Blend: AUG-CC-PVTZ
  Basis Set: (AUG-CC-PVTZ AUX)
    Blend: AUG-CC-PVTZ-JKFIT + DEF2-UNIVERSAL-JKFIT
  @DF-RHF Final Energy:  -599.01751647694391
    Total Energy =                       -599.0175164769439107
  //            Monomer B HF           //
    Molecular point group: c1

    Geometry (in Angstrom), charge = 0, multiplicity = 1:

       Center              X                  Y                   Z               Mass
    ------------   -----------------  -----------------  -----------------  -----------------
      Gh(K)           0.000000000000     0.000000000000     0.000000000000    38.963706486400
         O            2.210706000000     1.169674000000     1.148820000000    15.994914619570
         H            2.542276000000     0.564502000000     1.883025000000     1.007825032230
         H            2.469189000000     2.058712000000     1.390268000000     1.007825032230
         O           -0.157161000000     0.568570000000    -2.648263000000    15.994914619570
         H            0.654664000000     1.115551000000    -2.877620000000     1.007825032230
         H           -0.061308000000    -0.316781000000    -3.128151000000     1.007825032230
         O            1.720062000000    -1.820533000000    -1.495334000000    15.994914619570
         H            1.720440000000    -2.330188000000    -2.342644000000     1.007825032230
         H            2.311599000000    -2.331956000000    -0.890084000000     1.007825032230
         O           -1.760100000000     1.823148000000     0.416399000000    15.994914619570
         H           -1.645011000000     2.388567000000     1.190595000000     1.007825032230
         H           -1.171767000000     2.247211000000    -0.232701000000     1.007825032230
         O            0.101240000000    -2.179944000000     1.333505000000    15.994914619570
         H           -0.422830000000    -2.543391000000     0.610743000000     1.007825032230
         H            1.012164000000    -2.546319000000     1.146336000000     1.007825032230

  Charge       = 0
  Multiplicity = 1
  Basis Set: AUG-CC-PVTZ
    Blend: AUG-CC-PVTZ
  Basis Set: (AUG-CC-PVTZ AUX)
    Blend: AUG-CC-PVTZ-JKFIT + DEF2-UNIVERSAL-JKFIT

    Orbital Energies [Eh]
    ---------------------

    Doubly Occupied:

       1A    -20.578850     2A    -20.559384     3A    -20.554464
       4A    -20.550737     5A    -20.536038     6A     -1.344742
       7A     -1.329178     8A     -1.321402     9A     -1.314660
      10A     -1.307180    11A     -0.710265    12A     -0.697395
      13A     -0.679889    14A     -0.675624    15A     -0.671412
      16A     -0.583451    17A     -0.563999    18A     -0.563199
      19A     -0.553161    20A     -0.550505    21A     -0.514263
      22A     -0.496454    23A     -0.486117    24A     -0.484678
      25A     -0.475044

  @DF-RHF Final Energy:  -380.27223027732560

   => Energetics <=

    Nuclear Repulsion Energy =            172.4786702584952138
    One-Electron Energy =                -869.2976110628810602
    Two-Electron Energy =                 316.5467105270602701
    Total Energy =                       -380.2722302773256047
 Dipole X            :        -43.9238778           45.9721082            2.0482305
 Dipole Y            :          9.3309306           -9.8393731           -0.5084425
 Dipole Z            :         24.4561824          -24.9618025           -0.5056200
 Magnitude           :                                                    2.1701183

    SAPT Results
  --------------------------------------------------------------------------------------------------------
    Electrostatics               -102.58455943 [mEh]     -64.37278291 [kcal/mol]    -269.33572369 [kJ/mol]
      Elst10,r                   -104.30345342 [mEh]     -65.45140517 [kcal/mol]    -273.84867921 [kJ/mol]
      Elst12,r                      1.71889398 [mEh]       1.07862226 [kcal/mol]       4.51295553 [kJ/mol]

    Exchange                       60.51753407 [mEh]      37.97532596 [kcal/mol]     158.88876381 [kJ/mol]
      Exch10                       54.19753982 [mEh]      34.00946970 [kcal/mol]     142.29562120 [kJ/mol]
      Exch10(S^2)                  54.02098649 [mEh]      33.89868080 [kcal/mol]     141.83208049 [kJ/mol]
      Exch11(S^2)                  -0.50761560 [mEh]      -0.31853360 [kcal/mol]      -1.33274458 [kJ/mol]
      Exch12(S^2)                   6.82760985 [mEh]       4.28438986 [kcal/mol]      17.92588719 [kJ/mol]

    Induction                     -29.84267090 [mEh]     -18.72655871 [kcal/mol]     -78.35192166 [kJ/mol]
      Ind20,r                     -67.82775845 [mEh]     -42.56256102 [kcal/mol]    -178.08175529 [kJ/mol]
      Ind22                       -13.86006113 [mEh]      -8.69731967 [kcal/mol]     -36.38958548 [kJ/mol]
      Exch-Ind20,r                 44.23776653 [mEh]      27.75961760 [kcal/mol]     116.14624002 [kJ/mol]
      Exch-Ind22                    9.03963454 [mEh]       5.67245632 [kcal/mol]      23.73355723 [kJ/mol]
      delta HF,r (2)               -1.43225239 [mEh]      -0.89875195 [kcal/mol]      -3.76037814 [kJ/mol]

    Dispersion                    -11.97588739 [mEh]      -7.51498280 [kcal/mol]     -31.44268802 [kJ/mol]
      Disp20                      -14.32499097 [mEh]      -8.98906755 [kcal/mol]     -37.61025861 [kJ/mol]
      Disp21                        1.88007109 [mEh]       1.17976242 [kcal/mol]       4.93612597 [kJ/mol]
      Disp22 (SDQ)                 -0.15909408 [mEh]      -0.09983304 [kcal/mol]      -0.41770144 [kJ/mol]
      Disp22 (T)                   -1.51650586 [mEh]      -0.95162180 [kcal/mol]      -3.98158560 [kJ/mol]
      Est. Disp22 (T)              -1.64045344 [mEh]      -1.02940007 [kcal/mol]      -4.30700990 [kJ/mol]
      Exch-Disp20                   2.26858000 [mEh]       1.42355544 [kcal/mol]       5.95615597 [kJ/mol]

  Total HF                        -75.12815791 [mEh]     -47.14363083 [kcal/mol]    -197.24895141 [kJ/mol]
  Total SAPT0                     -87.18456888 [mEh]     -54.70914294 [kcal/mol]    -228.90305406 [kJ/mol]
  Total SAPT2                     -83.96610724 [mEh]     -52.68952777 [kcal/mol]    -220.45298419 [kJ/mol]
  Total SAPT2+                    -83.88558366 [mEh]     -52.63899846 [kcal/mol]    -220.24156956 [kJ/mol]

  Special recipe for scaled SAPT0 (see Manual):
    Electrostatics sSAPT0        -104.30345342 [mEh]     -65.45140517 [kcal/mol]    -273.84867921 [kJ/mol]
    Exchange sSAPT0                54.19753982 [mEh]      34.00946970 [kcal/mol]     142.29562120 [kJ/mol]
    Induction sSAPT0              -24.58708682 [mEh]     -15.42862991 [kcal/mol]     -64.55338756 [kJ/mol]
    Dispersion sSAPT0             -12.03409543 [mEh]      -7.55150889 [kcal/mol]     -31.59551321 [kJ/mol]
  Total sSAPT0                    -86.72709585 [mEh]     -54.42207428 [kcal/mol]    -227.70195878 [kJ/mol]
  --------------------------------------------------------------------------------------------------------

*** Psi4 exiting successfully. Buy a developer a beer!
