                               Psi4 1.9 release

  ==> Input File <==

--------------------------------------------------------------------------
MEMORY 60 GB

molecule dimer {
1 1
K      0.000000     0.000000     0.000000
--
0 1
O     -0.173319    -2.840391     0.867645
H      0.361358    -3.018681     0.103750
H      0.418315    -2.846524     1.610566
O      2.897650    -0.409254     0.514190
H      3.425469    -0.973584     1.091300
H      3.301664     0.485390     0.727381
O      0.932781     1.909151    -1.488458
H      0.748588     2.219972    -2.358054
H      1.394457     2.688798    -1.067496
O      0.561714     0.650297     2.488368
H      1.438825     0.343526     2.322741
H     -0.011650    -0.078291     2.840390
O     -1.989521     1.668299     0.915195
H     -1.899444     2.314467     1.611632
H     -2.406715     2.104578     0.181580
O     -0.629671    -1.110605    -2.391014
H     -0.994888    -2.016476    -2.229954
H      0.034334    -1.219319    -3.116133

units ang
no_reorient
no_com
symmetry c1
}

set {
basis        aug-cc-pVTZ
scf_type     df
}

energy("sapt2+")
--------------------------------------------------------------------------

  //              Dimer HF             //
    Molecular point group: c1
  Charge       = 1
  Multiplicity = 1
  Basis Set: AUG-CC-PVTZ
    Blend: AUG-CC-PVTZ
  Basis Set: (AUG-CC-PVTZ AUX)
    Blend: AUG-CC-PVTZ-JKFIT + DEF2-UNIVERSAL-JKFIT
  @DF-RHF Final Energy: -1055.45349983276856
    Total Energy =                      -1055.4534998327685571
 Dipole X            :        -33.3180863           35.1628616            1.8447752
 Dipole Y            :          2.2572523           -1.9958683            0.2613841
 Dipole Z            :        -17.1044213           16.9416045           -0.1628168
 Magnitude           :                                                    1.8703012
  //            Monomer A HF           //
    Molecular point group: c1
  Multiplicity = 1
  Basis Set: AUG-CC-PVTZ
    Blend: AUG-CC-PVTZ
  Basis Set: (AUG-CC-PVTZ AUX)
    Blend: AUG-CC-PVTZ-JKFIT + DEF2-UNIVERSAL-JKFIT
  @DF-RHF Final Energy:  -599.01751714539694
    Total Energy =                       -599.0175171453969369
  //            Monomer B HF           //
    Molecular point group: c1

    Geometry (in Angstrom), charge = 0, multiplicity = 1:

       Center              X                  Y                   Z               Mass
    ------------   -----------------  -----------------  -----------------  -----------------
      Gh(K)           0.000000000000     0.000000000000     0.000000000000    38.963706486400
         O           -0.173319000000    -2.840391000000     0.867645000000    15.994914619570
         H            0.361358000000    -3.018681000000     0.103750000000     1.007825032230
         H            0.418315000000    -2.846524000000     1.610566000000     1.007825032230
         O            2.897650000000    -0.409254000000     0.514190000000    15.994914619570
         H            3.425469000000    -0.973584000000     1.091300000000     1.007825032230
         H            3.301664000000     0.485390000000     0.727381000000     1.007825032230
         O            0.932781000000     1.909151000000    -1.488458000000    15.994914619570
         H            0.748588000000     2.219972000000    -2.358054000000     1.007825032230
         H            1.394457000000     2.688798000000    -1.067496000000     1.007825032230
         O            0.561714000000     0.650297000000     2.488368000000    15.994914619570
         H            1.438825000000     0.343526000000     2.322741000000     1.007825032230
         H           -0.011650000000    -0.078291000000     2.840390000000     1.007825032230
         O           -1.989521000000     1.668299000000     0.915195000000    15.994914619570
         H           -1.899444000000     2.314467000000     1.611632000000     1.007825032230
         H           -2.406715000000     2.104578000000     0.181580000000     1.007825032230
         O           -0.629671000000    -1.110605000000    -2.391014000000    15.994914619570
         H           -0.994888000000    -2.016476000000    -2.229954000000     1.007825032230
         H            0.034334000000    -1.219319000000    -3.116133000000     1.007825032230

  Charge       = 0
  Multiplicity = 1
  Basis Set: AUG-CC-PVTZ
    Blend: AUG-CC-PVTZ
  Basis Set: (AUG-CC-PVTZ AUX)
    Blend: AUG-CC-PVTZ-JKFIT + DEF2-UNIVERSAL-JKFIT

    Orbital Energies [Eh]
    ---------------------

    Doubly Occupied:

       1A    -20.577042     2A    -20.549525     3A    -20.548544
       4A    -20.546526     5A    -20.532332     6A    -20.526824
       7A     -1.347477     8A     -1.340147     9A     -1.325075
      10A     -1.316322    11A     -1.313850    12A     -1.311558
      13A     -0.709838    14A     -0.699394    15A     -0.692779
      16A     -0.686487    17A     -0.684168    18A     -0.678685
      19A     -0.589738    20A     -0.566933    21A     -0.559988
      22A     -0.550939    23A     -0.543993    24A     -0.538640
      25A     -0.511918    26A     -0.494204    27A     -0.486156
      28A     -0.483372    29A     -0.475140    30A     -0.467991

  @DF-RHF Final Energy:  -456.33746265789995

   => Energetics <=

    Nuclear Repulsion Energy =            244.1913043813873117
    One-Electron Energy =               -1117.7463548719877053
    Two-Electron Energy =                 417.2175878327004170
    Total Energy =                       -456.3374626578999482
 Dipole X            :        -33.4596966           35.1628616            1.7031650
 Dipole Y            :          2.1473156           -1.9958683            0.1514473
 Dipole Z            :        -17.1410759           16.9416045           -0.1994714
 Magnitude           :                                                    1.7214808

    SAPT Results
  --------------------------------------------------------------------------------------------------------
    Electrostatics               -114.54473039 [mEh]     -71.87790349 [kcal/mol]    -300.73714822 [kJ/mol]
      Elst10,r                   -118.35627044 [mEh]     -74.26968098 [kcal/mol]    -310.74434522 [kJ/mol]
      Elst12,r                      3.81154004 [mEh]       2.39177749 [kcal/mol]      10.00719700 [kJ/mol]

    Exchange                       51.90957962 [mEh]      32.57375299 [kcal/mol]     136.28858252 [kJ/mol]
      Exch10                       46.52478094 [mEh]      29.19474080 [kcal/mol]     122.15079552 [kJ/mol]
      Exch10(S^2)                  46.39762099 [mEh]      29.11494673 [kcal/mol]     121.81693713 [kJ/mol]
      Exch11(S^2)                  -0.45453113 [mEh]      -0.28522259 [kcal/mol]      -1.19337132 [kJ/mol]
      Exch12(S^2)                   5.83932982 [mEh]       3.66423478 [kcal/mol]      15.33115832 [kJ/mol]

    Induction                     -31.55412672 [mEh]     -19.80051345 [kcal/mol]     -82.84534829 [kJ/mol]
      Ind20,r                     -59.94909678 [mEh]     -37.61862617 [kcal/mol]    -157.39633191 [kJ/mol]
      Ind22                       -11.53075576 [mEh]      -7.23565848 [kcal/mol]     -30.27399509 [kJ/mol]
      Exch-Ind20,r                 34.65261694 [mEh]      21.74484542 [kcal/mol]      90.98043325 [kJ/mol]
      Exch-Ind22                    6.66516902 [mEh]       4.18245670 [kcal/mol]      17.49939885 [kJ/mol]
      delta HF,r (2)               -1.39206014 [mEh]      -0.87353092 [kcal/mol]      -3.65485338 [kJ/mol]

    Dispersion                    -12.16966485 [mEh]      -7.63657999 [kcal/mol]     -31.95145067 [kJ/mol]
      Disp20                      -14.30733347 [mEh]      -8.97798729 [kcal/mol]     -37.56389884 [kJ/mol]
      Disp21                        1.98036723 [mEh]       1.24269920 [kcal/mol]       5.19945345 [kJ/mol]
      Disp22 (SDQ)                 -0.17884596 [mEh]      -0.11222754 [kcal/mol]      -0.46956001 [kJ/mol]
      Disp22 (T)                   -1.52598269 [mEh]      -0.95756859 [kcal/mol]      -4.00646699 [kJ/mol]
      Est. Disp22 (T)              -1.64638590 [mEh]      -1.03312275 [kcal/mol]      -4.32258558 [kJ/mol]
      Exch-Disp20                   1.98253325 [mEh]       1.24405839 [kcal/mol]       5.20514032 [kJ/mol]

  Total HF                        -98.52002947 [mEh]     -61.82225185 [kcal/mol]    -258.66430174 [kJ/mol]
  Total SAPT0                    -110.84482969 [mEh]     -69.55618075 [kcal/mol]    -291.02306027 [kJ/mol]
  Total SAPT2                    -106.51407771 [mEh]     -66.83859286 [kcal/mol]    -279.65267251 [kJ/mol]
  Total SAPT2+                   -106.35894234 [mEh]     -66.74124394 [kcal/mol]    -279.24536465 [kJ/mol]

  Special recipe for scaled SAPT0 (see Manual):
    Electrostatics sSAPT0        -118.35627044 [mEh]     -74.26968098 [kcal/mol]    -310.74434522 [kJ/mol]
    Exchange sSAPT0                46.52478094 [mEh]      29.19474080 [kcal/mol]     122.15079552 [kJ/mol]
    Induction sSAPT0              -26.40284564 [mEh]     -16.56803577 [kcal/mol]     -69.32066167 [kJ/mol]
    Dispersion sSAPT0             -12.30845518 [mEh]      -7.72367223 [kcal/mol]     -32.31584462 [kJ/mol]
  Total sSAPT0                   -110.54279032 [mEh]     -69.36664818 [kcal/mol]    -290.23005599 [kJ/mol]
  --------------------------------------------------------------------------------------------------------

*** Psi4 exiting successfully. Buy a developer a beer!
