                               Psi4 1.9 release

  ==> Input File <==

--------------------------------------------------------------------------
MEMORY 60 GB

molecule dimer {
1 1
K      0.000000     0.000000     0.000000
--
0 1
O      1.648898    -1.546006    -1.857996
H      2.092535    -1.100966    -2.598197
H      2.194052    -2.356053    -1.700477
O     -1.568301     2.383087    -1.001812
H     -1.802415     2.237050    -1.910497
H     -1.213233     3.238371    -0.886325
O      2.091592     1.900784     0.705839
H      2.615292     1.641900     1.402222
H      2.546075     1.586819    -0.079299
O      0.683124    -2.379385     1.323810
H      1.575264    -2.320863     1.667866
H      0.490384    -3.085364     0.686686
O     -1.338183    -0.586736    -2.404592
H     -2.281260    -0.401331    -2.486804
H     -1.244841    -1.567581    -2.320192
O     -2.060914     0.053466     1.559508
H     -2.771129     0.606849     1.759945
H     -2.154751    -0.845782     1.906871

units ang
no_reorient
no_com
symmetry c1
}

set {
basis        aug-cc-pVTZ
scf_type     df
}

energy("sapt2+")
--------------------------------------------------------------------------

  //              Dimer HF             //
    Molecular point group: c1
  Charge       = 1
  Multiplicity = 1
  Basis Set: AUG-CC-PVTZ
    Blend: AUG-CC-PVTZ
  Basis Set: (AUG-CC-PVTZ AUX)
    Blend: AUG-CC-PVTZ-JKFIT + DEF2-UNIVERSAL-JKFIT
  @DF-RHF Final Energy: -1055.46234452488761
    Total Energy =                      -1055.4623445248876124
 Dipole X            :          8.8400126           -8.1339463            0.7060663
 Dipole Y            :          5.7505035           -7.1153310           -1.3648275
 Dipole Z            :         33.0852598          -33.9397552           -0.8544954
 Magnitude           :                                                    1.7582509
  //            Monomer A HF           //
    Molecular point group: c1
  Multiplicity = 1
  Basis Set: AUG-CC-PVTZ
    Blend: AUG-CC-PVTZ
  Basis Set: (AUG-CC-PVTZ AUX)
    Blend: AUG-CC-PVTZ-JKFIT + DEF2-UNIVERSAL-JKFIT
  @DF-RHF Final Energy:  -599.01751684945759
    Total Energy =                       -599.0175168494575928
  //            Monomer B HF           //
    Molecular point group: c1

    Geometry (in Angstrom), charge = 0, multiplicity = 1:

       Center              X                  Y                   Z               Mass
    ------------   -----------------  -----------------  -----------------  -----------------
      Gh(K)           0.000000000000     0.000000000000     0.000000000000    38.963706486400
         O            1.648898000000    -1.546006000000    -1.857996000000    15.994914619570
         H            2.092535000000    -1.100966000000    -2.598197000000     1.007825032230
         H            2.194052000000    -2.356053000000    -1.700477000000     1.007825032230
         O           -1.568301000000     2.383087000000    -1.001812000000    15.994914619570
         H           -1.802415000000     2.237050000000    -1.910497000000     1.007825032230
         H           -1.213233000000     3.238371000000    -0.886325000000     1.007825032230
         O            2.091592000000     1.900784000000     0.705839000000    15.994914619570
         H            2.615292000000     1.641900000000     1.402222000000     1.007825032230
         H            2.546075000000     1.586819000000    -0.079299000000     1.007825032230
         O            0.683124000000    -2.379385000000     1.323810000000    15.994914619570
         H            1.575264000000    -2.320863000000     1.667866000000     1.007825032230
         H            0.490384000000    -3.085364000000     0.686686000000     1.007825032230
         O           -1.338183000000    -0.586736000000    -2.404592000000    15.994914619570
         H           -2.281260000000    -0.401331000000    -2.486804000000     1.007825032230
         H           -1.244841000000    -1.567581000000    -2.320192000000     1.007825032230
         O           -2.060914000000     0.053466000000     1.559508000000    15.994914619570
         H           -2.771129000000     0.606849000000     1.759945000000     1.007825032230
         H           -2.154751000000    -0.845782000000     1.906871000000     1.007825032230

  Charge       = 0
  Multiplicity = 1
  Basis Set: AUG-CC-PVTZ
    Blend: AUG-CC-PVTZ
  Basis Set: (AUG-CC-PVTZ AUX)
    Blend: AUG-CC-PVTZ-JKFIT + DEF2-UNIVERSAL-JKFIT

    Orbital Energies [Eh]
    ---------------------

    Doubly Occupied:

       1A    -20.565378     2A    -20.547289     3A    -20.540410
       4A    -20.536364     5A    -20.525488     6A    -20.519437
       7A     -1.339640     8A     -1.336643     9A     -1.326607
      10A     -1.321606    11A     -1.313228    12A     -1.312157
      13A     -0.722853    14A     -0.705690    15A     -0.703454
      16A     -0.699989    17A     -0.699087    18A     -0.682417
      19A     -0.573716    20A     -0.560938    21A     -0.547054
      22A     -0.543120    23A     -0.539193    24A     -0.523508
      25A     -0.503177    26A     -0.489583    27A     -0.485105
      28A     -0.479068    29A     -0.472410    30A     -0.466239

  @DF-RHF Final Energy:  -456.33748010218017

   => Energetics <=

    Nuclear Repulsion Energy =            240.0206966245471278
    One-Electron Energy =               -1109.5546490104707118
    Two-Electron Energy =                 413.1964722837434465
    Total Energy =                       -456.3374801021801659
 Dipole X            :          8.9483848           -8.1339463            0.8144385
 Dipole Y            :          5.8128757           -7.1153310           -1.3024553
 Dipole Z            :         33.1727556          -33.9397552           -0.7669997
 Magnitude           :                                                    1.7169707

    SAPT Results
  --------------------------------------------------------------------------------------------------------
    Electrostatics               -113.12372481 [mEh]     -70.98620903 [kcal/mol]    -297.00629857 [kJ/mol]
      Elst10,r                   -117.69951099 [mEh]     -73.85755821 [kcal/mol]    -309.02002353 [kJ/mol]
      Elst12,r                      4.57578618 [mEh]       2.87134918 [kcal/mol]      12.01372496 [kJ/mol]

    Exchange                       39.03592671 [mEh]      24.49541383 [kcal/mol]     102.48881145 [kJ/mol]
      Exch10                       34.78140671 [mEh]      21.82566222 [kcal/mol]      91.31857074 [kJ/mol]
      Exch10(S^2)                  34.71740322 [mEh]      21.78549943 [kcal/mol]      91.15052960 [kJ/mol]
      Exch11(S^2)                  -0.29032844 [mEh]      -0.18218385 [kcal/mol]      -0.76225722 [kJ/mol]
      Exch12(S^2)                   4.54484844 [mEh]       2.85193545 [kcal/mol]      11.93249793 [kJ/mol]

    Induction                     -28.71989448 [mEh]     -18.02200587 [kcal/mol]     -75.40407256 [kJ/mol]
      Ind20,r                     -48.99728818 [mEh]     -30.74626252 [kcal/mol]    -128.64236240 [kJ/mol]
      Ind22                        -9.00203032 [mEh]      -5.64885931 [kcal/mol]     -23.63482736 [kJ/mol]
      Exch-Ind20,r                 25.64486575 [mEh]      16.09239621 [kcal/mol]      67.33058574 [kJ/mol]
      Exch-Ind22                    4.71160482 [mEh]       2.95657666 [kcal/mol]      12.37031675 [kJ/mol]
      delta HF,r (2)               -1.07704653 [mEh]      -0.67585690 [kcal/mol]      -2.82778528 [kJ/mol]

    Dispersion                    -10.29251582 [mEh]      -6.45865119 [kcal/mol]     -27.02299656 [kJ/mol]
      Disp20                      -11.85618875 [mEh]      -7.43987077 [kcal/mol]     -31.12841929 [kJ/mol]
      Disp21                        1.60495413 [mEh]       1.00712392 [kcal/mol]       4.21380649 [kJ/mol]
      Disp22 (SDQ)                 -0.14851825 [mEh]      -0.09319661 [kcal/mol]      -0.38993460 [kJ/mol]
      Disp22 (T)                   -1.26370289 [mEh]      -0.79298554 [kcal/mol]      -3.31785148 [kJ/mol]
      Est. Disp22 (T)              -1.35887776 [mEh]      -0.85270867 [kcal/mol]      -3.56773307 [kJ/mol]
      Exch-Disp20                   1.46611481 [mEh]       0.92000093 [kcal/mol]       3.84928391 [kJ/mol]

  Total HF                       -107.34757325 [mEh]     -67.36161920 [kcal/mol]    -281.84101474 [kJ/mol]
  Total SAPT0                    -117.73764719 [mEh]     -73.88148903 [kcal/mol]    -309.12015012 [kJ/mol]
  Total SAPT2                    -113.19776652 [mEh]     -71.03267090 [kcal/mol]    -297.20069506 [kJ/mol]
  Total SAPT2+                   -113.10020840 [mEh]     -70.97145226 [kcal/mol]    -296.94455624 [kJ/mol]

  Special recipe for scaled SAPT0 (see Manual):
    Electrostatics sSAPT0        -117.69951099 [mEh]     -73.85755821 [kcal/mol]    -309.02002353 [kJ/mol]
    Exchange sSAPT0                34.78140671 [mEh]      21.82566222 [kcal/mol]      91.31857074 [kJ/mol]
    Induction sSAPT0              -24.28737407 [mEh]     -15.24055732 [kcal/mol]     -63.76649182 [kJ/mol]
    Dispersion sSAPT0             -10.38195039 [mEh]      -6.51477223 [kcal/mol]     -27.25780699 [kJ/mol]
  Total sSAPT0                   -117.58742874 [mEh]     -73.78722553 [kcal/mol]    -308.72575161 [kJ/mol]
  --------------------------------------------------------------------------------------------------------

*** Psi4 exiting successfully. Buy a developer a beer!
