                               Psi4 1.9 release

  ==> Input File <==

--------------------------------------------------------------------------
MEMORY 60 GB

molecule dimer {
1 1
K      0.000000     0.000000     0.000000
--
0 1
O     -1.343909    -1.211403     2.099413
H     -1.253672    -2.078427     2.385455
H     -1.877420    -0.648745     2.704831
O     -2.397561     1.590145     0.274651
H     -3.158315     1.280604    -0.227144
H     -2.022053     2.285837    -0.218265
O     -2.079589    -1.111467    -1.864902
H     -2.298458    -0.195653    -2.049554
H     -2.680979    -1.325544    -1.093268
O      1.264225     2.555430     0.500886
H      0.862716     3.053670    -0.127152
H      2.168458     2.917047     0.643229
O      0.684809    -2.567000     0.519199
H      0.206735    -2.757309     1.321443
H      0.308697    -3.187476    -0.135128
O      1.071392    -0.945498    -2.247692
H      1.750392    -1.483034    -1.804775
H      0.594835    -1.550044    -2.831515

units ang
no_reorient
no_com
symmetry c1
}

set {
basis        aug-cc-pVTZ
scf_type     df
}

energy("sapt2+")
--------------------------------------------------------------------------

  //              Dimer HF             //
    Molecular point group: c1
  Charge       = 1
  Multiplicity = 1
  Basis Set: AUG-CC-PVTZ
    Blend: AUG-CC-PVTZ
  Basis Set: (AUG-CC-PVTZ AUX)
    Blend: AUG-CC-PVTZ-JKFIT + DEF2-UNIVERSAL-JKFIT
  @DF-RHF Final Energy: -1055.44621519249768
    Total Energy =                      -1055.4462151924976752
 Dipole X            :         54.9768841          -56.3216393           -1.3447552
 Dipole Y            :         32.2427258          -32.5173073           -0.2745815
 Dipole Z            :         13.6164283          -13.5671054            0.0493229
 Magnitude           :                                                    1.3733879
  //            Monomer A HF           //
    Molecular point group: c1
  Multiplicity = 1
  Basis Set: AUG-CC-PVTZ
    Blend: AUG-CC-PVTZ
  Basis Set: (AUG-CC-PVTZ AUX)
    Blend: AUG-CC-PVTZ-JKFIT + DEF2-UNIVERSAL-JKFIT
  @DF-RHF Final Energy:  -599.01751705329434
    Total Energy =                       -599.0175170532943412
  //            Monomer B HF           //
    Molecular point group: c1

    Geometry (in Angstrom), charge = 0, multiplicity = 1:

       Center              X                  Y                   Z               Mass
    ------------   -----------------  -----------------  -----------------  -----------------
      Gh(K)           0.000000000000     0.000000000000     0.000000000000    38.963706486400
         O           -1.343909000000    -1.211403000000     2.099413000000    15.994914619570
         H           -1.253672000000    -2.078427000000     2.385455000000     1.007825032230
         H           -1.877420000000    -0.648745000000     2.704831000000     1.007825032230
         O           -2.397561000000     1.590145000000     0.274651000000    15.994914619570
         H           -3.158315000000     1.280604000000    -0.227144000000     1.007825032230
         H           -2.022053000000     2.285837000000    -0.218265000000     1.007825032230
         O           -2.079589000000    -1.111467000000    -1.864902000000    15.994914619570
         H           -2.298458000000    -0.195653000000    -2.049554000000     1.007825032230
         H           -2.680979000000    -1.325544000000    -1.093268000000     1.007825032230
         O            1.264225000000     2.555430000000     0.500886000000    15.994914619570
         H            0.862716000000     3.053670000000    -0.127152000000     1.007825032230
         H            2.168458000000     2.917047000000     0.643229000000     1.007825032230
         O            0.684809000000    -2.567000000000     0.519199000000    15.994914619570
         H            0.206735000000    -2.757309000000     1.321443000000     1.007825032230
         H            0.308697000000    -3.187476000000    -0.135128000000     1.007825032230
         O            1.071392000000    -0.945498000000    -2.247692000000    15.994914619570
         H            1.750392000000    -1.483034000000    -1.804775000000     1.007825032230
         H            0.594835000000    -1.550044000000    -2.831515000000     1.007825032230

  Charge       = 0
  Multiplicity = 1
  Basis Set: AUG-CC-PVTZ
    Blend: AUG-CC-PVTZ
  Basis Set: (AUG-CC-PVTZ AUX)
    Blend: AUG-CC-PVTZ-JKFIT + DEF2-UNIVERSAL-JKFIT

    Orbital Energies [Eh]
    ---------------------

    Doubly Occupied:

       1A    -20.559869     2A    -20.554680     3A    -20.552489
       4A    -20.545988     5A    -20.544596     6A    -20.529513
       7A     -1.353505     8A     -1.345202     9A     -1.344362
      10A     -1.327580    11A     -1.327030    12A     -1.307816
      13A     -0.735912    14A     -0.723775    15A     -0.716825
      16A     -0.689247    17A     -0.685423    18A     -0.674964
      19A     -0.578550    20A     -0.569349    21A     -0.562249
      22A     -0.561651    23A     -0.557879    24A     -0.541825
      25A     -0.506871    26A     -0.499198    27A     -0.492725
      28A     -0.492710    29A     -0.484969    30A     -0.466905

  @DF-RHF Final Energy:  -456.33272888361893

   => Energetics <=

    Nuclear Repulsion Energy =            247.7764252060844967
    One-Electron Energy =               -1124.5509919167889166
    Two-Electron Energy =                 420.4418378270855214
    Total Energy =                       -456.3327288836189268
 Dipole X            :         55.1821751          -56.3216393           -1.1394642
 Dipole Y            :         32.4706706          -32.5173073           -0.0466368
 Dipole Z            :         13.6729434          -13.5671054            0.1058380
 Magnitude           :                                                    1.1453189

    SAPT Results
  --------------------------------------------------------------------------------------------------------
    Electrostatics               -104.14232114 [mEh]     -65.35029314 [kcal/mol]    -273.42562648 [kJ/mol]
      Elst10,r                   -107.71296351 [mEh]     -67.59090505 [kcal/mol]    -282.80034674 [kJ/mol]
      Elst12,r                      3.57064237 [mEh]       2.24061192 [kcal/mol]       9.37472026 [kJ/mol]

    Exchange                       41.12674599 [mEh]      25.80742273 [kcal/mol]     107.97825671 [kJ/mol]
      Exch10                       36.49438866 [mEh]      22.90057463 [kcal/mol]      95.81600423 [kJ/mol]
      Exch10(S^2)                  36.40547498 [mEh]      22.84478045 [kcal/mol]      95.58256139 [kJ/mol]
      Exch11(S^2)                  -0.33122032 [mEh]      -0.20784389 [kcal/mol]      -0.86961884 [kJ/mol]
      Exch12(S^2)                   4.96357765 [mEh]       3.11469200 [kcal/mol]      13.03187132 [kJ/mol]

    Induction                     -29.27523326 [mEh]     -18.37048622 [kcal/mol]     -76.86211435 [kJ/mol]
      Ind20,r                     -50.71607066 [mEh]     -31.82481481 [kcal/mol]    -133.15502518 [kJ/mol]
      Ind22                        -9.78127494 [mEh]      -6.13784269 [kcal/mol]     -25.68073382 [kJ/mol]
      Exch-Ind20,r                 27.25619174 [mEh]      17.10351854 [kcal/mol]      71.56112156 [kJ/mol]
      Exch-Ind22                    5.25672241 [mEh]       3.29864311 [kcal/mol]      13.80152279 [kJ/mol]
      delta HF,r (2)               -1.29080182 [mEh]      -0.80999037 [kcal/mol]      -3.38899971 [kJ/mol]

    Dispersion                    -10.76799635 [mEh]      -6.75701972 [kcal/mol]     -28.27137052 [kJ/mol]
      Disp20                      -12.42134024 [mEh]      -7.79450868 [kcal/mol]     -32.61222430 [kJ/mol]
      Disp21                        1.69576430 [mEh]       1.06410817 [kcal/mol]       4.45222857 [kJ/mol]
      Disp22 (SDQ)                 -0.16200391 [mEh]      -0.10165899 [kcal/mol]      -0.42534121 [kJ/mol]
      Disp22 (T)                   -1.34127549 [mEh]      -0.84166308 [kcal/mol]      -3.52151831 [kJ/mol]
      Est. Disp22 (T)              -1.43929711 [mEh]      -0.90317257 [kcal/mol]      -3.77887403 [kJ/mol]
      Exch-Disp20                   1.55888060 [mEh]       0.97821235 [kcal/mol]       4.09284046 [kJ/mol]

  Total HF                        -95.96925558 [mEh]     -60.22161707 [kcal/mol]    -251.96724582 [kJ/mol]
  Total SAPT0                    -106.83171522 [mEh]     -67.03791340 [kcal/mol]    -280.48662966 [kJ/mol]
  Total SAPT2                    -103.15326805 [mEh]     -64.72965295 [kcal/mol]    -270.82886795 [kJ/mol]
  Total SAPT2+                   -103.05880476 [mEh]     -64.67037635 [kcal/mol]    -270.58085463 [kJ/mol]

  Special recipe for scaled SAPT0 (see Manual):
    Electrostatics sSAPT0        -107.71296351 [mEh]     -67.59090505 [kcal/mol]    -282.80034674 [kJ/mol]
    Exchange sSAPT0                36.49438866 [mEh]      22.90057463 [kcal/mol]      95.81600423 [kJ/mol]
    Induction sSAPT0              -24.55048787 [mEh]     -15.40566373 [kcal/mol]     -64.45729703 [kJ/mol]
    Dispersion sSAPT0             -10.85100988 [mEh]      -6.80911150 [kcal/mol]     -28.48932251 [kJ/mol]
  Total sSAPT0                   -106.62007260 [mEh]     -66.90510565 [kcal/mol]    -279.93096205 [kJ/mol]
  --------------------------------------------------------------------------------------------------------

*** Psi4 exiting successfully. Buy a developer a beer!
