                               Psi4 1.9 release

  ==> Input File <==

--------------------------------------------------------------------------
MEMORY 60 GB

molecule dimer {
1 1
K      0.000000     0.000000     0.000000
--
0 1
O      0.913124     1.392044     2.215266
H      0.107898     1.589882     2.707194
H      1.074752     2.048582     1.547337
O      2.026680    -1.153352    -1.012698
H      2.858159    -1.449304    -0.567475
H      2.342505    -0.543742    -1.689308
O     -1.825857    -2.133558     0.355993
H     -1.430944    -2.920093     0.805392
H     -1.781389    -2.429058    -0.509967
O     -1.999435     0.997352    -1.712310
H     -1.916758     1.159308    -2.674599
H     -2.643508     1.624790    -1.332880
O     -2.230302     0.207585     1.991219
H     -2.672649     0.382701     2.901728
H     -2.200317    -0.765324     1.906808

units ang
no_reorient
no_com
symmetry c1
}

set {
basis        aug-cc-pVTZ
scf_type     df
}

energy("sapt2+")
--------------------------------------------------------------------------

  //              Dimer HF             //
    Molecular point group: c1
  Charge       = 1
  Multiplicity = 1
  Basis Set: AUG-CC-PVTZ
    Blend: AUG-CC-PVTZ
  Basis Set: (AUG-CC-PVTZ AUX)
    Blend: AUG-CC-PVTZ-JKFIT + DEF2-UNIVERSAL-JKFIT
  @DF-RHF Final Energy:  -979.38154886607515
    Total Energy =                       -979.3815488660751498
 Dipole X            :         58.7109904          -58.9378574           -0.2268670
 Dipole Y            :         12.7733290          -12.8911258           -0.1177968
 Dipole Z            :        -34.0365047           33.6257678           -0.4107369
 Magnitude           :                                                    0.4837866
  //            Monomer A HF           //
    Molecular point group: c1
  Multiplicity = 1
  Basis Set: AUG-CC-PVTZ
    Blend: AUG-CC-PVTZ
  Basis Set: (AUG-CC-PVTZ AUX)
    Blend: AUG-CC-PVTZ-JKFIT + DEF2-UNIVERSAL-JKFIT
  @DF-RHF Final Energy:  -599.01751602840955
    Total Energy =                       -599.0175160284095455
  //            Monomer B HF           //
    Molecular point group: c1

    Geometry (in Angstrom), charge = 0, multiplicity = 1:

       Center              X                  Y                   Z               Mass
    ------------   -----------------  -----------------  -----------------  -----------------
      Gh(K)           0.000000000000     0.000000000000     0.000000000000    38.963706486400
         O            0.913124000000     1.392044000000     2.215266000000    15.994914619570
         H            0.107898000000     1.589882000000     2.707194000000     1.007825032230
         H            1.074752000000     2.048582000000     1.547337000000     1.007825032230
         O            2.026680000000    -1.153352000000    -1.012698000000    15.994914619570
         H            2.858159000000    -1.449304000000    -0.567475000000     1.007825032230
         H            2.342505000000    -0.543742000000    -1.689308000000     1.007825032230
         O           -1.825857000000    -2.133558000000     0.355993000000    15.994914619570
         H           -1.430944000000    -2.920093000000     0.805392000000     1.007825032230
         H           -1.781389000000    -2.429058000000    -0.509967000000     1.007825032230
         O           -1.999435000000     0.997352000000    -1.712310000000    15.994914619570
         H           -1.916758000000     1.159308000000    -2.674599000000     1.007825032230
         H           -2.643508000000     1.624790000000    -1.332880000000     1.007825032230
         O           -2.230302000000     0.207585000000     1.991219000000    15.994914619570
         H           -2.672649000000     0.382701000000     2.901728000000     1.007825032230
         H           -2.200317000000    -0.765324000000     1.906808000000     1.007825032230

  Charge       = 0
  Multiplicity = 1
  Basis Set: AUG-CC-PVTZ
    Blend: AUG-CC-PVTZ
  Basis Set: (AUG-CC-PVTZ AUX)
    Blend: AUG-CC-PVTZ-JKFIT + DEF2-UNIVERSAL-JKFIT

    Orbital Energies [Eh]
    ---------------------

    Doubly Occupied:

       1A    -20.557003     2A    -20.556785     3A    -20.550383
       4A    -20.541171     5A    -20.530875     6A     -1.352205
       7A     -1.330677     8A     -1.321658     9A     -1.316111
      10A     -1.299375    11A     -0.702901    12A     -0.697471
      13A     -0.696897    14A     -0.691085    15A     -0.666549
      16A     -0.584438    17A     -0.568789    18A     -0.552381
      19A     -0.544060    20A     -0.539166    21A     -0.502550
      22A     -0.494661    23A     -0.488755    24A     -0.480297
      25A     -0.469273

  @DF-RHF Final Energy:  -380.28437153755408

   => Energetics <=

    Nuclear Repulsion Energy =            171.8948902303034174
    One-Electron Energy =                -868.2874857740731613
    Two-Electron Energy =                 316.1082240062156643
    Total Energy =                       -380.2843715375540796
 Dipole X            :         58.8934966          -58.9378574           -0.0443608
 Dipole Y            :         12.8447823          -12.8911258           -0.0463435
 Dipole Z            :        -34.1880495           33.6257678           -0.5622818
 Magnitude           :                                                    0.5659297

    SAPT Results
  --------------------------------------------------------------------------------------------------------
    Electrostatics                -92.72299302 [mEh]     -58.18455656 [kcal/mol]    -243.44418464 [kJ/mol]
      Elst10,r                    -95.45695132 [mEh]     -59.90014129 [kcal/mol]    -250.62219117 [kJ/mol]
      Elst12,r                      2.73395830 [mEh]       1.71558473 [kcal/mol]       7.17800653 [kJ/mol]

    Exchange                       43.03498564 [mEh]      27.00486119 [kcal/mol]     112.98833923 [kJ/mol]
      Exch10                       38.44950564 [mEh]      24.12742905 [kcal/mol]     100.94916315 [kJ/mol]
      Exch10(S^2)                  38.35366794 [mEh]      24.06728998 [kcal/mol]     100.69754129 [kJ/mol]
      Exch11(S^2)                  -0.26991412 [mEh]      -0.16937367 [kcal/mol]      -0.70865943 [kJ/mol]
      Exch12(S^2)                   4.85539412 [mEh]       3.04680581 [kcal/mol]      12.74783552 [kJ/mol]

    Induction                     -26.72175046 [mEh]     -16.76815157 [kcal/mol]     -70.15794616 [kJ/mol]
      Ind20,r                     -52.34471172 [mEh]     -32.84680250 [kcal/mol]    -137.43102168 [kJ/mol]
      Ind22                        -9.85821036 [mEh]      -6.18612039 [kcal/mol]     -25.88272772 [kJ/mol]
      Exch-Ind20,r                 30.74516807 [mEh]      19.29288423 [kcal/mol]      80.72142763 [kJ/mol]
      Exch-Ind22                    5.79031433 [mEh]       3.63347710 [kcal/mol]      15.20246817 [kJ/mol]
      delta HF,r (2)               -1.05431078 [mEh]      -0.66159000 [kcal/mol]      -2.76809256 [kJ/mol]

    Dispersion                     -9.79647398 [mEh]      -6.14738023 [kcal/mol]     -25.72063889 [kJ/mol]
      Disp20                      -11.46522903 [mEh]      -7.19453984 [kcal/mol]     -30.10195468 [kJ/mol]
      Disp21                        1.52813060 [mEh]       0.95891643 [kcal/mol]       4.01210634 [kJ/mol]
      Disp22 (SDQ)                 -0.13764009 [mEh]      -0.08637046 [kcal/mol]      -0.36137399 [kJ/mol]
      Disp22 (T)                   -1.20788162 [mEh]      -0.75795716 [kcal/mol]      -3.17129275 [kJ/mol]
      Est. Disp22 (T)              -1.30607888 [mEh]      -0.81957687 [kcal/mol]      -3.42910964 [kJ/mol]
      Exch-Disp20                   1.58434342 [mEh]       0.99419051 [kcal/mol]       4.15969308 [kJ/mol]

  Total HF                        -79.66130011 [mEh]     -49.98822051 [kcal/mol]    -209.15071463 [kJ/mol]
  Total SAPT0                     -89.54218572 [mEh]     -56.18856984 [kcal/mol]    -235.09297623 [kJ/mol]
  Total SAPT2                     -86.29064345 [mEh]     -54.14819626 [kcal/mol]    -226.55605317 [kJ/mol]
  Total SAPT2+                    -86.20623182 [mEh]     -54.09522717 [kcal/mol]    -226.33443046 [kJ/mol]

  Special recipe for scaled SAPT0 (see Manual):
    Electrostatics sSAPT0         -95.45695132 [mEh]     -59.90014129 [kcal/mol]    -250.62219117 [kJ/mol]
    Exchange sSAPT0                38.44950564 [mEh]      24.12742905 [kcal/mol]     100.94916315 [kJ/mol]
    Induction sSAPT0              -22.42280102 [mEh]     -14.07052007 [kcal/mol]     -58.87105597 [kJ/mol]
    Dispersion sSAPT0              -9.86897909 [mEh]      -6.19287788 [kcal/mol]     -25.91100104 [kJ/mol]
  Total sSAPT0                    -89.29922580 [mEh]     -56.03611019 [kcal/mol]    -234.45508503 [kJ/mol]
  --------------------------------------------------------------------------------------------------------

*** Psi4 exiting successfully. Buy a developer a beer!
