                               Psi4 1.9 release

  ==> Input File <==

--------------------------------------------------------------------------
MEMORY 60 GB

molecule dimer {
1 1
K      0.000000     0.000000     0.000000
--
0 1
O     -0.015696    -0.345584    -2.941205
H      0.515652    -0.599405    -3.713110
H     -0.673237     0.300386    -3.283334
O     -2.446947    -1.823863     0.179839
H     -2.158831    -2.714217     0.379934
H     -2.806161    -1.416264     1.005551
O      2.301395     1.583890     1.081324
H      1.387959     1.838924     0.873685
H      2.218707     0.954213     1.825131
O      2.051371    -1.795200    -0.845859
H      2.285042    -2.269202    -0.005706
H      2.857258    -1.807046    -1.325303
O      1.560729     1.646549    -1.959294
H      1.936631     0.802346    -2.208848
H      2.350103     2.037956    -1.650044

units ang
no_reorient
no_com
symmetry c1
}

set {
basis        aug-cc-pVTZ
scf_type     df
}

energy("sapt2+")
--------------------------------------------------------------------------

  //              Dimer HF             //
    Molecular point group: c1
  Charge       = 1
  Multiplicity = 1
  Basis Set: AUG-CC-PVTZ
    Blend: AUG-CC-PVTZ
  Basis Set: (AUG-CC-PVTZ AUX)
    Blend: AUG-CC-PVTZ-JKFIT + DEF2-UNIVERSAL-JKFIT
  @DF-RHF Final Energy:  -979.35927544032120
    Total Energy =                       -979.3592754403211984
 Dipole X            :        -66.2356045           67.1229567            0.8873522
 Dipole Y            :         15.4303584          -16.5274937           -1.0971353
 Dipole Z            :         83.3380463          -83.1169656            0.2210807
 Magnitude           :                                                    1.4282775
  //            Monomer A HF           //
    Molecular point group: c1
  Multiplicity = 1
  Basis Set: AUG-CC-PVTZ
    Blend: AUG-CC-PVTZ
  Basis Set: (AUG-CC-PVTZ AUX)
    Blend: AUG-CC-PVTZ-JKFIT + DEF2-UNIVERSAL-JKFIT
  @DF-RHF Final Energy:  -599.01751572708292
    Total Energy =                       -599.0175157270829231
  //            Monomer B HF           //
    Molecular point group: c1

    Geometry (in Angstrom), charge = 0, multiplicity = 1:

       Center              X                  Y                   Z               Mass
    ------------   -----------------  -----------------  -----------------  -----------------
      Gh(K)           0.000000000000     0.000000000000     0.000000000000    38.963706486400
         O           -0.015696000000    -0.345584000000    -2.941205000000    15.994914619570
         H            0.515652000000    -0.599405000000    -3.713110000000     1.007825032230
         H           -0.673237000000     0.300386000000    -3.283334000000     1.007825032230
         O           -2.446947000000    -1.823863000000     0.179839000000    15.994914619570
         H           -2.158831000000    -2.714217000000     0.379934000000     1.007825032230
         H           -2.806161000000    -1.416264000000     1.005551000000     1.007825032230
         O            2.301395000000     1.583890000000     1.081324000000    15.994914619570
         H            1.387959000000     1.838924000000     0.873685000000     1.007825032230
         H            2.218707000000     0.954213000000     1.825131000000     1.007825032230
         O            2.051371000000    -1.795200000000    -0.845859000000    15.994914619570
         H            2.285042000000    -2.269202000000    -0.005706000000     1.007825032230
         H            2.857258000000    -1.807046000000    -1.325303000000     1.007825032230
         O            1.560729000000     1.646549000000    -1.959294000000    15.994914619570
         H            1.936631000000     0.802346000000    -2.208848000000     1.007825032230
         H            2.350103000000     2.037956000000    -1.650044000000     1.007825032230

  Charge       = 0
  Multiplicity = 1
  Basis Set: AUG-CC-PVTZ
    Blend: AUG-CC-PVTZ
  Basis Set: (AUG-CC-PVTZ AUX)
    Blend: AUG-CC-PVTZ-JKFIT + DEF2-UNIVERSAL-JKFIT

    Orbital Energies [Eh]
    ---------------------

    Doubly Occupied:

       1A    -20.561242     2A    -20.556124     3A    -20.554552
       4A    -20.542093     5A    -20.531162     6A     -1.343962
       7A     -1.332711     8A     -1.331229     9A     -1.328927
      10A     -1.316018    11A     -0.705037    12A     -0.704117
      13A     -0.695001    14A     -0.682929    15A     -0.674433
      16A     -0.578236    17A     -0.571636    18A     -0.565649
      19A     -0.561287    20A     -0.550352    21A     -0.504732
      22A     -0.495654    23A     -0.495386    24A     -0.480198
      25A     -0.474519

  @DF-RHF Final Energy:  -380.28490612167593

   => Energetics <=

    Nuclear Repulsion Energy =            175.9050542178488286
    One-Electron Energy =                -876.1055426517539217
    Two-Electron Energy =                 319.9155823122291622
    Total Energy =                       -380.2849061216759310
 Dipole X            :        -66.5596997           67.1229567            0.5632570
 Dipole Y            :         15.5570771          -16.5274937           -0.9704166
 Dipole Z            :         83.7180476          -83.1169656            0.6010821
 Magnitude           :                                                    1.2728969

    SAPT Results
  --------------------------------------------------------------------------------------------------------
    Electrostatics                -53.36433491 [mEh]     -33.48662572 [kcal/mol]    -140.10804200 [kJ/mol]
      Elst10,r                    -54.78394993 [mEh]     -34.37744759 [kcal/mol]    -143.83524073 [kJ/mol]
      Elst12,r                      1.41961502 [mEh]       0.89082188 [kcal/mol]       3.72719873 [kJ/mol]

    Exchange                       20.57921027 [mEh]      12.91364941 [kcal/mol]      54.03070913 [kJ/mol]
      Exch10                       17.59868774 [mEh]      11.04334329 [kcal/mol]      46.20534830 [kJ/mol]
      Exch10(S^2)                  17.57160257 [mEh]      11.02634708 [kcal/mol]      46.13423620 [kJ/mol]
      Exch11(S^2)                  -0.09597689 [mEh]      -0.06022641 [kcal/mol]      -0.25198730 [kJ/mol]
      Exch12(S^2)                   3.07649942 [mEh]       1.93053253 [kcal/mol]       8.07734812 [kJ/mol]

    Induction                     -23.19252971 [mEh]     -14.55353211 [kcal/mol]     -60.89197837 [kJ/mol]
      Ind20,r                     -32.65352214 [mEh]     -20.49039450 [kcal/mol]     -85.73181058 [kJ/mol]
      Ind22                        -6.21029326 [mEh]      -3.89701786 [kcal/mol]     -16.30512271 [kJ/mol]
      Exch-Ind20,r                 14.12339017 [mEh]       8.86256113 [kcal/mol]      37.08095578 [kJ/mol]
      Exch-Ind22                    2.68609292 [mEh]       1.68554876 [kcal/mol]       7.05233600 [kJ/mol]
      delta HF,r (2)               -1.13819740 [mEh]      -0.71422965 [kcal/mol]      -2.98833686 [kJ/mol]

    Dispersion                     -6.99596138 [mEh]      -4.39003204 [kcal/mol]     -18.36789408 [kJ/mol]
      Disp20                       -7.73660101 [mEh]      -4.85479043 [kcal/mol]     -20.31244315 [kJ/mol]
      Disp21                        1.04341303 [mEh]       0.65475156 [kcal/mol]       2.73948052 [kJ/mol]
      Disp22 (SDQ)                 -0.13812255 [mEh]      -0.08667321 [kcal/mol]      -0.36264070 [kJ/mol]
      Disp22 (T)                   -0.85243913 [mEh]      -0.53491363 [kcal/mol]      -2.23807862 [kJ/mol]
      Est. Disp22 (T)              -0.91673796 [mEh]      -0.57526176 [kcal/mol]      -2.40689519 [kJ/mol]
      Exch-Disp20                   0.75208711 [mEh]       0.47194179 [kcal/mol]       1.97460444 [kJ/mol]

  Total HF                        -56.85359156 [mEh]     -35.67616732 [kcal/mol]    -149.26908408 [kJ/mol]
  Total SAPT0                     -63.83810546 [mEh]     -40.05901596 [kcal/mol]    -167.60692279 [kJ/mol]
  Total SAPT2                     -62.96216824 [mEh]     -39.50935706 [kcal/mol]    -165.30714995 [kJ/mol]
  Total SAPT2+                    -62.97361573 [mEh]     -39.51654047 [kcal/mol]    -165.33720531 [kJ/mol]

  Special recipe for scaled SAPT0 (see Manual):
    Electrostatics sSAPT0         -54.78394993 [mEh]     -34.37744759 [kcal/mol]    -143.83524073 [kJ/mol]
    Exchange sSAPT0                17.59868774 [mEh]      11.04334329 [kcal/mol]      46.20534830 [kJ/mol]
    Induction sSAPT0              -19.60291855 [mEh]     -12.30101710 [kcal/mol]     -51.46745555 [kJ/mol]
    Dispersion sSAPT0              -6.98103069 [mEh]      -4.38066290 [kcal/mol]     -18.32869356 [kJ/mol]
  Total sSAPT0                    -63.76921143 [mEh]     -40.01578431 [kcal/mol]    -167.42604153 [kJ/mol]
  --------------------------------------------------------------------------------------------------------

*** Psi4 exiting successfully. Buy a developer a beer!
