                               Psi4 1.9 release

  ==> Input File <==

--------------------------------------------------------------------------
MEMORY 60 GB

molecule dimer {
1 1
K      0.000000     0.000000     0.000000
--
0 1
O      0.957190    -1.386757     2.254317
H      0.346314    -1.538227     2.944648
H      1.508477    -0.680100     2.530417
O     -1.972321    -1.892141    -0.455348
H     -2.386838    -1.108573    -0.921557
H     -1.959596    -2.685029    -1.112345
O      2.214048     1.192468     0.500912
H      2.674099     0.872921     1.259207
H      2.802115     1.115706    -0.234481
O     -1.570407     1.521695    -1.522003
H     -2.540405     1.534752    -1.445713
H     -1.376556     1.601288    -2.489818
O      1.131955    -1.268921    -1.784459
H      1.698719    -1.777535    -1.212553
H      1.705790    -0.723363    -2.309643

units ang
no_reorient
no_com
symmetry c1
}

set {
basis        aug-cc-pVTZ
scf_type     df
}

energy("sapt2+")
--------------------------------------------------------------------------

  //              Dimer HF             //
    Molecular point group: c1
  Charge       = 1
  Multiplicity = 1
  Basis Set: AUG-CC-PVTZ
    Blend: AUG-CC-PVTZ
  Basis Set: (AUG-CC-PVTZ AUX)
    Blend: AUG-CC-PVTZ-JKFIT + DEF2-UNIVERSAL-JKFIT
  @DF-RHF Final Energy:  -979.37522001767468
    Total Energy =                       -979.3752200176746783
 Dipole X            :        -15.4210133           16.1681925            0.7471792
 Dipole Y            :         34.1794327          -34.1235557            0.0558770
 Dipole Z            :         20.0860605          -20.8710537           -0.7849932
 Magnitude           :                                                    1.0851789
  //            Monomer A HF           //
    Molecular point group: c1
  Multiplicity = 1
  Basis Set: AUG-CC-PVTZ
    Blend: AUG-CC-PVTZ
  Basis Set: (AUG-CC-PVTZ AUX)
    Blend: AUG-CC-PVTZ-JKFIT + DEF2-UNIVERSAL-JKFIT
  @DF-RHF Final Energy:  -599.01751667040651
    Total Energy =                       -599.0175166704066214
  //            Monomer B HF           //
    Molecular point group: c1

    Geometry (in Angstrom), charge = 0, multiplicity = 1:

       Center              X                  Y                   Z               Mass
    ------------   -----------------  -----------------  -----------------  -----------------
      Gh(K)           0.000000000000     0.000000000000     0.000000000000    38.963706486400
         O            0.957190000000    -1.386757000000     2.254317000000    15.994914619570
         H            0.346314000000    -1.538227000000     2.944648000000     1.007825032230
         H            1.508477000000    -0.680100000000     2.530417000000     1.007825032230
         O           -1.972321000000    -1.892141000000    -0.455348000000    15.994914619570
         H           -2.386838000000    -1.108573000000    -0.921557000000     1.007825032230
         H           -1.959596000000    -2.685029000000    -1.112345000000     1.007825032230
         O            2.214048000000     1.192468000000     0.500912000000    15.994914619570
         H            2.674099000000     0.872921000000     1.259207000000     1.007825032230
         H            2.802115000000     1.115706000000    -0.234481000000     1.007825032230
         O           -1.570407000000     1.521695000000    -1.522003000000    15.994914619570
         H           -2.540405000000     1.534752000000    -1.445713000000     1.007825032230
         H           -1.376556000000     1.601288000000    -2.489818000000     1.007825032230
         O            1.131955000000    -1.268921000000    -1.784459000000    15.994914619570
         H            1.698719000000    -1.777535000000    -1.212553000000     1.007825032230
         H            1.705790000000    -0.723363000000    -2.309643000000     1.007825032230

  Charge       = 0
  Multiplicity = 1
  Basis Set: AUG-CC-PVTZ
    Blend: AUG-CC-PVTZ
  Basis Set: (AUG-CC-PVTZ AUX)
    Blend: AUG-CC-PVTZ-JKFIT + DEF2-UNIVERSAL-JKFIT

    Orbital Energies [Eh]
    ---------------------

    Doubly Occupied:

       1A    -20.561304     2A    -20.554715     3A    -20.545166
       4A    -20.542428     5A    -20.541661     6A     -1.350616
       7A     -1.345780     8A     -1.332721     9A     -1.331101
      10A     -1.289895    11A     -0.726756    12A     -0.713999
      13A     -0.701693    14A     -0.697474    15A     -0.660098
      16A     -0.572190    17A     -0.566875    18A     -0.566321
      19A     -0.559450    20A     -0.533834    21A     -0.504306
      22A     -0.498127    23A     -0.492609    24A     -0.484770
      25A     -0.470064

  @DF-RHF Final Energy:  -380.27873616615500

   => Energetics <=

    Nuclear Repulsion Energy =            175.3852302643669816
    One-Electron Energy =                -875.0400216083316991
    Two-Electron Energy =                 319.3760551778096897
    Total Energy =                       -380.2787361661549994
 Dipole X            :        -15.5464344           16.1681925            0.6217581
 Dipole Y            :         34.3714114          -34.1235557            0.2478558
 Dipole Z            :         20.2825955          -20.8710537           -0.5884582
 Magnitude           :                                                    0.8912343

    SAPT Results
  --------------------------------------------------------------------------------------------------------
    Electrostatics               -111.87919856 [mEh]     -70.20525702 [kcal/mol]    -293.73879535 [kJ/mol]
      Elst10,r                   -114.29589861 [mEh]     -71.72175919 [kcal/mol]    -300.08384045 [kJ/mol]
      Elst12,r                      2.41670005 [mEh]       1.51650217 [kcal/mol]       6.34504510 [kJ/mol]

    Exchange                       67.87901167 [mEh]      42.59472289 [kcal/mol]     178.21632059 [kJ/mol]
      Exch10                       61.67384132 [mEh]      38.70091971 [kcal/mol]     161.92464807 [kJ/mol]
      Exch10(S^2)                  61.35812120 [mEh]      38.50280235 [kcal/mol]     161.09572503 [kJ/mol]
      Exch11(S^2)                  -0.56360551 [mEh]      -0.35366780 [kcal/mol]      -1.47974607 [kJ/mol]
      Exch12(S^2)                   6.76877587 [mEh]       4.24747098 [kcal/mol]      17.77141859 [kJ/mol]

    Induction                     -31.00684962 [mEh]     -19.45709189 [kcal/mol]     -81.40847246 [kJ/mol]
      Ind20,r                     -72.26815659 [mEh]     -45.34895291 [kcal/mol]    -189.74001899 [kJ/mol]
      Ind22                       -13.57182248 [mEh]      -8.51644718 [kcal/mol]     -35.63281501 [kJ/mol]
      Exch-Ind20,r                 47.44508435 [mEh]      29.77223991 [kcal/mol]     124.56705179 [kJ/mol]
      Exch-Ind22                    8.91009668 [mEh]       5.59117008 [kcal/mol]      23.39345562 [kJ/mol]
      delta HF,r (2)               -1.52205158 [mEh]      -0.95510178 [kcal/mol]      -3.99614587 [kJ/mol]

    Dispersion                    -12.81007245 [mEh]      -8.03844182 [kcal/mol]     -33.63284058 [kJ/mol]
      Disp20                      -15.48465793 [mEh]      -9.71676955 [kcal/mol]     -40.65496380 [kJ/mol]
      Disp21                        2.05031048 [mEh]       1.28658925 [kcal/mol]       5.38308941 [kJ/mol]
      Disp22 (SDQ)                 -0.15501704 [mEh]      -0.09727466 [kcal/mol]      -0.40699717 [kJ/mol]
      Disp22 (T)                   -1.60673354 [mEh]      -1.00824052 [kcal/mol]      -4.21847832 [kJ/mol]
      Est. Disp22 (T)              -1.74113934 [mEh]      -1.09258143 [kcal/mol]      -4.57136071 [kJ/mol]
      Exch-Disp20                   2.52043139 [mEh]       1.58159457 [kcal/mol]       6.61739170 [kJ/mol]

  Total HF                        -78.96718111 [mEh]     -49.55265427 [kcal/mol]    -207.32830545 [kJ/mol]
  Total SAPT0                     -91.93140766 [mEh]     -57.68782924 [kcal/mol]    -241.36587755 [kJ/mol]
  Total SAPT2                     -87.97126305 [mEh]     -55.20280099 [kcal/mol]    -230.96851933 [kJ/mol]
  Total SAPT2+                    -87.81710896 [mEh]     -55.10606783 [kcal/mol]    -230.56378780 [kJ/mol]

  Special recipe for scaled SAPT0 (see Manual):
    Electrostatics sSAPT0        -114.29589861 [mEh]     -71.72175919 [kcal/mol]    -300.08384045 [kJ/mol]
    Exchange sSAPT0                61.67384132 [mEh]      38.70091971 [kcal/mol]     161.92464807 [kJ/mol]
    Induction sSAPT0              -25.60895837 [mEh]     -16.06986399 [kcal/mol]     -67.23631094 [kJ/mol]
    Dispersion sSAPT0             -12.92511913 [mEh]      -8.11063470 [kcal/mol]     -33.93489560 [kJ/mol]
  Total sSAPT0                    -91.15613479 [mEh]     -57.20133818 [kcal/mol]    -239.33039892 [kJ/mol]
  --------------------------------------------------------------------------------------------------------

*** Psi4 exiting successfully. Buy a developer a beer!
