                               Psi4 1.9 release

  ==> Input File <==

--------------------------------------------------------------------------
MEMORY 60 GB

molecule dimer {
1 1
K      0.000000     0.000000     0.000000
--
0 1
O      1.573041     1.595164    -1.828830
H      1.782496     2.427484    -1.472982
H      2.404379     1.442044    -2.240169
O      2.542675    -0.726399     0.160104
H      2.495524    -0.827647    -0.784085
H      2.947300    -1.512593     0.461683
O     -0.696117    -1.387787     2.142827
H     -1.572201    -1.578739     1.777997
H     -0.721888    -1.146147     3.057868
O     -2.445245    -1.000611    -0.272942
H     -2.636754    -1.958729    -0.204424
H     -3.151468    -0.659976    -0.827128
O     -1.095844     1.180662    -2.400144
H     -0.169066     1.239994    -2.615175
H     -1.309802     0.269347    -2.619630

units ang
no_reorient
no_com
symmetry c1
}

set {
basis        aug-cc-pVTZ
scf_type     df
}

energy("sapt2+")
--------------------------------------------------------------------------

  //              Dimer HF             //
    Molecular point group: c1
  Charge       = 1
  Multiplicity = 1
  Basis Set: AUG-CC-PVTZ
    Blend: AUG-CC-PVTZ
  Basis Set: (AUG-CC-PVTZ AUX)
    Blend: AUG-CC-PVTZ-JKFIT + DEF2-UNIVERSAL-JKFIT
  @DF-RHF Final Energy:  -979.38794650743921
    Total Energy =                       -979.3879465074392101
 Dipole X            :          1.9952781           -1.7071786            0.2880995
 Dipole Y            :          8.4335897           -9.4802457           -1.0466560
 Dipole Z            :         42.8572315          -43.5731633           -0.7159317
 Magnitude           :                                                    1.3004032
  //            Monomer A HF           //
    Molecular point group: c1
  Multiplicity = 1
  Basis Set: AUG-CC-PVTZ
    Blend: AUG-CC-PVTZ
  Basis Set: (AUG-CC-PVTZ AUX)
    Blend: AUG-CC-PVTZ-JKFIT + DEF2-UNIVERSAL-JKFIT
  @DF-RHF Final Energy:  -599.01751545312425
    Total Energy =                       -599.0175154531242470
  //            Monomer B HF           //
    Molecular point group: c1

    Geometry (in Angstrom), charge = 0, multiplicity = 1:

       Center              X                  Y                   Z               Mass
    ------------   -----------------  -----------------  -----------------  -----------------
      Gh(K)           0.000000000000     0.000000000000     0.000000000000    38.963706486400
         O            1.573041000000     1.595164000000    -1.828830000000    15.994914619570
         H            1.782496000000     2.427484000000    -1.472982000000     1.007825032230
         H            2.404379000000     1.442044000000    -2.240169000000     1.007825032230
         O            2.542675000000    -0.726399000000     0.160104000000    15.994914619570
         H            2.495524000000    -0.827647000000    -0.784085000000     1.007825032230
         H            2.947300000000    -1.512593000000     0.461683000000     1.007825032230
         O           -0.696117000000    -1.387787000000     2.142827000000    15.994914619570
         H           -1.572201000000    -1.578739000000     1.777997000000     1.007825032230
         H           -0.721888000000    -1.146147000000     3.057868000000     1.007825032230
         O           -2.445245000000    -1.000611000000    -0.272942000000    15.994914619570
         H           -2.636754000000    -1.958729000000    -0.204424000000     1.007825032230
         H           -3.151468000000    -0.659976000000    -0.827128000000     1.007825032230
         O           -1.095844000000     1.180662000000    -2.400144000000    15.994914619570
         H           -0.169066000000     1.239994000000    -2.615175000000     1.007825032230
         H           -1.309802000000     0.269347000000    -2.619630000000     1.007825032230

  Charge       = 0
  Multiplicity = 1
  Basis Set: AUG-CC-PVTZ
    Blend: AUG-CC-PVTZ
  Basis Set: (AUG-CC-PVTZ AUX)
    Blend: AUG-CC-PVTZ-JKFIT + DEF2-UNIVERSAL-JKFIT

    Orbital Energies [Eh]
    ---------------------

    Doubly Occupied:

       1A    -20.572991     2A    -20.569089     3A    -20.543512
       4A    -20.533319     5A    -20.522272     6A     -1.382280
       7A     -1.348537     8A     -1.340309     9A     -1.318336
      10A     -1.312352    11A     -0.723210    12A     -0.718841
      13A     -0.704811    14A     -0.698007    15A     -0.685259
      16A     -0.611790    17A     -0.581722    18A     -0.565903
      19A     -0.547139    20A     -0.539618    21A     -0.521440
      22A     -0.509616    23A     -0.489807    24A     -0.477515
      25A     -0.467256

  @DF-RHF Final Energy:  -380.29279465250153

   => Energetics <=

    Nuclear Repulsion Energy =            178.2465652752725873
    One-Electron Energy =                -880.5088533114934535
    Two-Electron Energy =                 321.9694933837193389
    Total Energy =                       -380.2927946525015273
 Dipole X            :          2.0280580           -1.7071786            0.3208795
 Dipole Y            :          8.5616443           -9.4802457           -0.9186014
 Dipole Z            :         42.9469133          -43.5731633           -0.6262500
 Magnitude           :                                                    1.1571436

    SAPT Results
  --------------------------------------------------------------------------------------------------------
    Electrostatics                -92.30583112 [mEh]     -57.92278351 [kcal/mol]    -242.34892621 [kJ/mol]
      Elst10,r                    -94.94437528 [mEh]     -59.57849497 [kcal/mol]    -249.27642296 [kJ/mol]
      Elst12,r                      2.63854416 [mEh]       1.65571146 [kcal/mol]       6.92749675 [kJ/mol]

    Exchange                       44.97187503 [mEh]      28.22027763 [kcal/mol]     118.07364162 [kJ/mol]
      Exch10                       40.21033222 [mEh]      25.23236441 [kcal/mol]     105.57221269 [kJ/mol]
      Exch10(S^2)                  40.07540038 [mEh]      25.14769340 [kcal/mol]     105.21794921 [kJ/mol]
      Exch11(S^2)                  -0.29458649 [mEh]      -0.18485581 [kcal/mol]      -0.77343671 [kJ/mol]
      Exch12(S^2)                   5.05612930 [mEh]       3.17276904 [kcal/mol]      13.27486565 [kJ/mol]

    Induction                     -27.07188006 [mEh]     -16.98786121 [kcal/mol]     -71.07721130 [kJ/mol]
      Ind20,r                     -52.29942489 [mEh]     -32.81838459 [kcal/mol]    -137.31212113 [kJ/mol]
      Ind22                       -10.02690036 [mEh]      -6.29197497 [kcal/mol]     -26.32562328 [kJ/mol]
      Exch-Ind20,r                 30.55157075 [mEh]      19.17140008 [kcal/mol]      80.21313795 [kJ/mol]
      Exch-Ind22                    5.85737905 [mEh]       3.67556085 [kcal/mol]      15.37854659 [kJ/mol]
      delta HF,r (2)               -1.15450461 [mEh]      -0.72446258 [kcal/mol]      -3.03115143 [kJ/mol]

    Dispersion                    -10.41143375 [mEh]      -6.53327331 [kcal/mol]     -27.33521555 [kJ/mol]
      Disp20                      -12.19682253 [mEh]      -7.65362169 [kcal/mol]     -32.02275314 [kJ/mol]
      Disp21                        1.64744184 [mEh]       1.03378536 [kcal/mol]       4.32535795 [kJ/mol]
      Disp22 (SDQ)                 -0.14970267 [mEh]      -0.09393984 [kcal/mol]      -0.39304430 [kJ/mol]
      Disp22 (T)                   -1.27679800 [mEh]      -0.80120284 [kcal/mol]      -3.35223268 [kJ/mol]
      Est. Disp22 (T)              -1.38057157 [mEh]      -0.86632174 [kcal/mol]      -3.62469016 [kJ/mol]
      Exch-Disp20                   1.66822118 [mEh]       1.04682459 [kcal/mol]       4.37991410 [kJ/mol]

  Total HF                        -77.63640181 [mEh]     -48.71757765 [kcal/mol]    -203.83434488 [kJ/mol]
  Total SAPT0                     -88.16500316 [mEh]     -55.32437474 [kcal/mol]    -231.47718391 [kJ/mol]
  Total SAPT2                     -84.93443750 [mEh]     -53.29716418 [kcal/mol]    -222.99533493 [kJ/mol]
  Total SAPT2+                    -84.81726990 [mEh]     -53.22364040 [kcal/mol]    -222.68771144 [kJ/mol]

  Special recipe for scaled SAPT0 (see Manual):
    Electrostatics sSAPT0         -94.94437528 [mEh]     -59.57849497 [kcal/mol]    -249.27642296 [kJ/mol]
    Exchange sSAPT0                40.21033222 [mEh]      25.23236441 [kcal/mol]     105.57221269 [kJ/mol]
    Induction sSAPT0              -22.59272180 [mEh]     -14.17714697 [kcal/mol]     -59.31718291 [kJ/mol]
    Dispersion sSAPT0             -10.51169410 [mEh]      -6.59618764 [kcal/mol]     -27.59844907 [kJ/mol]
  Total sSAPT0                    -87.83845897 [mEh]     -55.11946516 [kcal/mol]    -230.61984225 [kJ/mol]
  --------------------------------------------------------------------------------------------------------

*** Psi4 exiting successfully. Buy a developer a beer!
