                               Psi4 1.9 release

  ==> Input File <==

--------------------------------------------------------------------------
MEMORY 60 GB

molecule dimer {
1 1
K      0.000000     0.000000     0.000000
--
0 1
O     -0.210079     2.249880    -1.822263
H     -0.999905     2.747073    -2.188873
H      0.437892     2.910845    -1.624153
O     -0.450115    -1.345599    -2.334771
H     -1.257746    -1.369664    -2.796646
H     -0.004945    -2.214472    -2.565938
O      0.686051     1.202628     2.117488
H      1.269892     0.636475     2.686024
H      0.056161     1.684988     2.688453

units ang
no_reorient
no_com
symmetry c1
}

set {
basis        aug-cc-pVTZ
scf_type     df
}

energy("sapt2+")
--------------------------------------------------------------------------

  //              Dimer HF             //
    Molecular point group: c1
  Charge       = 1
  Multiplicity = 1
  Basis Set: AUG-CC-PVTZ
    Blend: AUG-CC-PVTZ
  Basis Set: (AUG-CC-PVTZ AUX)
    Blend: AUG-CC-PVTZ-JKFIT + DEF2-UNIVERSAL-JKFIT
  @DF-RHF Final Energy:  -827.25192934771451
    Total Energy =                       -827.2519293477145084
 Dipole X            :          0.1968532           -0.5514126           -0.3545594
 Dipole Y            :        -39.8275123           40.1576572            0.3301449
 Dipole Z            :         38.0830098          -38.0165672            0.0664426
 Magnitude           :                                                    0.4890017
  //            Monomer A HF           //
    Molecular point group: c1
  Multiplicity = 1
  Basis Set: AUG-CC-PVTZ
    Blend: AUG-CC-PVTZ
  Basis Set: (AUG-CC-PVTZ AUX)
    Blend: AUG-CC-PVTZ-JKFIT + DEF2-UNIVERSAL-JKFIT
  @DF-RHF Final Energy:  -599.01751265076382
    Total Energy =                       -599.0175126507638197
  //            Monomer B HF           //
    Molecular point group: c1

    Geometry (in Angstrom), charge = 0, multiplicity = 1:

       Center              X                  Y                   Z               Mass
    ------------   -----------------  -----------------  -----------------  -----------------
      Gh(K)           0.000000000000     0.000000000000     0.000000000000    38.963706486400
         O           -0.210079000000     2.249880000000    -1.822263000000    15.994914619570
         H           -0.999905000000     2.747073000000    -2.188873000000     1.007825032230
         H            0.437892000000     2.910845000000    -1.624153000000     1.007825032230
         O           -0.450115000000    -1.345599000000    -2.334771000000    15.994914619570
         H           -1.257746000000    -1.369664000000    -2.796646000000     1.007825032230
         H           -0.004945000000    -2.214472000000    -2.565938000000     1.007825032230
         O            0.686051000000     1.202628000000     2.117488000000    15.994914619570
         H            1.269892000000     0.636475000000     2.686024000000     1.007825032230
         H            0.056161000000     1.684988000000     2.688453000000     1.007825032230

  Charge       = 0
  Multiplicity = 1
  Basis Set: AUG-CC-PVTZ
    Blend: AUG-CC-PVTZ
  Basis Set: (AUG-CC-PVTZ AUX)
    Blend: AUG-CC-PVTZ-JKFIT + DEF2-UNIVERSAL-JKFIT

    Orbital Energies [Eh]
    ---------------------

    Doubly Occupied:

       1A    -20.558443     2A    -20.550442     3A    -20.549026
       4A     -1.331562     5A     -1.325319     6A     -1.324002
       7A     -0.699549     8A     -0.694503     9A     -0.690163
      10A     -0.564394    11A     -0.558680    12A     -0.555144
      13A     -0.495057    14A     -0.491136    15A     -0.487252

  @DF-RHF Final Energy:  -228.16670119227896

   => Energetics <=

    Nuclear Repulsion Energy =             62.7274870106936433
    One-Electron Energy =                -440.0390177762179178
    Two-Electron Energy =                 149.1448295732452891
    Total Energy =                       -228.1667011922789641
 Dipole X            :          0.2020446           -0.5514126           -0.3493680
 Dipole Y            :        -40.0383093           40.1576572            0.1193479
 Dipole Z            :         38.2166928          -38.0165672            0.2001255
 Magnitude           :                                                    0.4199430

    SAPT Results
  --------------------------------------------------------------------------------------------------------
    Electrostatics                -78.31844851 [mEh]     -49.14556841 [kcal/mol]    -205.62505822 [kJ/mol]
      Elst10,r                    -81.35885754 [mEh]     -51.05345388 [kcal/mol]    -213.60765104 [kJ/mol]
      Elst12,r                      3.04040903 [mEh]       1.90788547 [kcal/mol]       7.98259281 [kJ/mol]

    Exchange                       32.56852730 [mEh]      20.43705942 [kcal/mol]      85.50865663 [kJ/mol]
      Exch10                       29.50421807 [mEh]      18.51417635 [kcal/mol]      77.46331387 [kJ/mol]
      Exch10(S^2)                  29.34146466 [mEh]      18.41204705 [kcal/mol]      77.03600484 [kJ/mol]
      Exch11(S^2)                  -0.02149642 [mEh]      -0.01348921 [kcal/mol]      -0.05643885 [kJ/mol]
      Exch12(S^2)                   3.08580565 [mEh]       1.93637228 [kcal/mol]       8.10178162 [kJ/mol]

    Induction                     -18.37327708 [mEh]     -11.52940543 [kcal/mol]     -48.23903234 [kJ/mol]
      Ind20,r                     -39.16465465 [mEh]     -24.57619183 [kcal/mol]    -102.82678662 [kJ/mol]
      Ind22                        -6.42686839 [mEh]      -4.03292080 [kcal/mol]     -16.87374062 [kJ/mol]
      Exch-Ind20,r                 23.85428298 [mEh]      14.96878856 [kcal/mol]      62.62941133 [kJ/mol]
      Exch-Ind22                    3.91445650 [mEh]       2.45635854 [kcal/mol]      10.27740414 [kJ/mol]
      delta HF,r (2)               -0.55049353 [mEh]      -0.34543990 [kcal/mol]      -1.44532056 [kJ/mol]

    Dispersion                     -6.50244064 [mEh]      -4.08034310 [kcal/mol]     -17.07215554 [kJ/mol]
      Disp20                       -7.66404428 [mEh]      -4.80926040 [kcal/mol]     -20.12194550 [kJ/mol]
      Disp21                        0.96919634 [mEh]       0.60817989 [kcal/mol]       2.54462465 [kJ/mol]
      Disp22 (SDQ)                 -0.06807882 [mEh]      -0.04272011 [kcal/mol]      -0.17874092 [kJ/mol]
      Disp22 (T)                   -0.75733218 [mEh]      -0.47523312 [kcal/mol]      -1.98837537 [kJ/mol]
      Est. Disp22 (T)              -0.83536296 [mEh]      -0.52419817 [kcal/mol]      -2.19324515 [kJ/mol]
      Exch-Disp20                   1.09584909 [mEh]       0.68765568 [kcal/mol]       2.87715138 [kJ/mol]

  Total HF                        -67.71550467 [mEh]     -42.49212070 [kcal/mol]    -177.78703302 [kJ/mol]
  Total SAPT0                     -74.28369987 [mEh]     -46.61372542 [kcal/mol]    -195.03182714 [kJ/mol]
  Total SAPT2                     -70.69139349 [mEh]     -44.35951913 [kcal/mol]    -185.60022805 [kJ/mol]
  Total SAPT2+                    -70.62563893 [mEh]     -44.31825752 [kcal/mol]    -185.42758946 [kJ/mol]

  Special recipe for scaled SAPT0 (see Manual):
    Electrostatics sSAPT0         -81.35885754 [mEh]     -51.05345388 [kcal/mol]    -213.60765104 [kJ/mol]
    Exchange sSAPT0                29.50421807 [mEh]      18.51417635 [kcal/mol]      77.46331387 [kJ/mol]
    Induction sSAPT0              -15.46170918 [mEh]      -9.70236899 [kcal/mol]     -40.59471186 [kJ/mol]
    Dispersion sSAPT0              -6.54985825 [mEh]      -4.11009810 [kcal/mol]     -17.19665047 [kJ/mol]
  Total sSAPT0                    -73.86620690 [mEh]     -46.35174462 [kcal/mol]    -193.93569950 [kJ/mol]
  --------------------------------------------------------------------------------------------------------

*** Psi4 exiting successfully. Buy a developer a beer!
