                               Psi4 1.9 release

  ==> Input File <==

--------------------------------------------------------------------------
MEMORY 60 GB

molecule dimer {
1 1
K      0.000000     0.000000     0.000000
--
0 1
O      1.395321     2.485796    -0.499111
H      0.475724     2.530364    -0.908150
H      1.541025     3.296659     0.059292
O     -0.298366     0.277828    -2.884288
H     -1.052425    -0.252557    -3.266455
H     -0.007761     0.938512    -3.499209
O     -0.844454     0.705415     2.485358
H     -0.439561     1.442536     2.982417
H     -0.765232    -0.044769     3.073039
O      2.206718    -0.416213    -1.515557
H      2.624132    -1.306624    -1.434775
H      1.710832    -0.523339    -2.322752
O      2.287985     0.406779     1.536207
H      1.848703     0.878967     2.243779
H      2.356853     1.050663     0.803187
O     -0.926946    -2.528131    -0.885140
H     -0.638585    -2.814555    -0.002462
H     -0.175227    -2.863224    -1.473137
O     -2.524902     0.657056     0.276186
H     -2.345141     0.830225     1.144007
H     -3.348189     0.216696     0.083786

units ang
no_reorient
no_com
symmetry c1
}

set {
basis        aug-cc-pVTZ
scf_type     df
}

energy("sapt2+")
--------------------------------------------------------------------------

  //              Dimer HF             //
    Molecular point group: c1
  Charge       = 1
  Multiplicity = 1
  Basis Set: AUG-CC-PVTZ
    Blend: AUG-CC-PVTZ
  Basis Set: (AUG-CC-PVTZ AUX)
    Blend: AUG-CC-PVTZ-JKFIT + DEF2-UNIVERSAL-JKFIT
  @DF-RHF Final Energy: -1131.50411036330502
    Total Energy =                      -1131.5041103633050170
 Dipole X            :        -23.5586575           22.9563854           -0.6022721
 Dipole Y            :        -30.1025044           30.4015246            0.2990203
 Dipole Z            :         27.3796405          -27.2275387            0.1521018
 Magnitude           :                                                    0.6894053
  //            Monomer A HF           //
    Molecular point group: c1
  Multiplicity = 1
  Basis Set: AUG-CC-PVTZ
    Blend: AUG-CC-PVTZ
  Basis Set: (AUG-CC-PVTZ AUX)
    Blend: AUG-CC-PVTZ-JKFIT + DEF2-UNIVERSAL-JKFIT
  @DF-RHF Final Energy:  -599.01751804500793
    Total Energy =                       -599.0175180450079324
  //            Monomer B HF           //
    Molecular point group: c1

    Geometry (in Angstrom), charge = 0, multiplicity = 1:

       Center              X                  Y                   Z               Mass
    ------------   -----------------  -----------------  -----------------  -----------------
      Gh(K)           0.000000000000     0.000000000000     0.000000000000    38.963706486400
         O            1.395321000000     2.485796000000    -0.499111000000    15.994914619570
         H            0.475724000000     2.530364000000    -0.908150000000     1.007825032230
         H            1.541025000000     3.296659000000     0.059292000000     1.007825032230
         O           -0.298366000000     0.277828000000    -2.884288000000    15.994914619570
         H           -1.052425000000    -0.252557000000    -3.266455000000     1.007825032230
         H           -0.007761000000     0.938512000000    -3.499209000000     1.007825032230
         O           -0.844454000000     0.705415000000     2.485358000000    15.994914619570
         H           -0.439561000000     1.442536000000     2.982417000000     1.007825032230
         H           -0.765232000000    -0.044769000000     3.073039000000     1.007825032230
         O            2.206718000000    -0.416213000000    -1.515557000000    15.994914619570
         H            2.624132000000    -1.306624000000    -1.434775000000     1.007825032230
         H            1.710832000000    -0.523339000000    -2.322752000000     1.007825032230
         O            2.287985000000     0.406779000000     1.536207000000    15.994914619570
         H            1.848703000000     0.878967000000     2.243779000000     1.007825032230
         H            2.356853000000     1.050663000000     0.803187000000     1.007825032230
         O           -0.926946000000    -2.528131000000    -0.885140000000    15.994914619570
         H           -0.638585000000    -2.814555000000    -0.002462000000     1.007825032230
         H           -0.175227000000    -2.863224000000    -1.473137000000     1.007825032230
         O           -2.524902000000     0.657056000000     0.276186000000    15.994914619570
         H           -2.345141000000     0.830225000000     1.144007000000     1.007825032230
         H           -3.348189000000     0.216696000000     0.083786000000     1.007825032230

  Charge       = 0
  Multiplicity = 1
  Basis Set: AUG-CC-PVTZ
    Blend: AUG-CC-PVTZ
  Basis Set: (AUG-CC-PVTZ AUX)
    Blend: AUG-CC-PVTZ-JKFIT + DEF2-UNIVERSAL-JKFIT

    Orbital Energies [Eh]
    ---------------------

    Doubly Occupied:

       1A    -20.576203     2A    -20.559185     3A    -20.557432
       4A    -20.552996     5A    -20.526925     6A    -20.516793
       7A    -20.512883     8A     -1.359738     9A     -1.335982
      10A     -1.318819    11A     -1.317509    12A     -1.316602
      13A     -1.307139    14A     -1.297690    15A     -0.721475
      16A     -0.721191    17A     -0.713432    18A     -0.688546
      19A     -0.674876    20A     -0.667446    21A     -0.662580
      22A     -0.592524    23A     -0.562906    24A     -0.562675
      25A     -0.560330    26A     -0.545403    27A     -0.533684
      28A     -0.527820    29A     -0.514953    30A     -0.499896
      31A     -0.490138    32A     -0.487468    33A     -0.467141
      34A     -0.466734    35A     -0.456716

  @DF-RHF Final Energy:  -532.39594946276156

   => Energetics <=

    Nuclear Repulsion Energy =            340.5273860290249104
    One-Electron Energy =               -1415.4990038815572007
    Two-Electron Energy =                 542.5756683897707262
    Total Energy =                       -532.3959494627615641
 Dipole X            :        -23.6418428           22.9563854           -0.6854574
 Dipole Y            :        -30.2085912           30.4015246            0.1929334
 Dipole Z            :         27.4685745          -27.2275387            0.2410358
 Magnitude           :                                                    0.7517802

    SAPT Results
  --------------------------------------------------------------------------------------------------------
    Electrostatics               -108.14643670 [mEh]     -67.86291359 [kcal/mol]    -283.93843044 [kJ/mol]
      Elst10,r                   -110.50104842 [mEh]     -69.34045475 [kcal/mol]    -290.12046266 [kJ/mol]
      Elst12,r                      2.35461172 [mEh]       1.47754116 [kcal/mol]       6.18203222 [kJ/mol]

    Exchange                       55.82963365 [mEh]      35.03362404 [kcal/mol]     146.58068296 [kJ/mol]
      Exch10                       49.49312214 [mEh]      31.05740303 [kcal/mol]     129.94417427 [kJ/mol]
      Exch10(S^2)                  49.36263538 [mEh]      30.97552135 [kcal/mol]     129.60158134 [kJ/mol]
      Exch11(S^2)                  -0.64809901 [mEh]      -0.40668827 [kcal/mol]      -1.70158373 [kJ/mol]
      Exch12(S^2)                   6.98461053 [mEh]       4.38290928 [kcal/mol]      18.33809242 [kJ/mol]

    Induction                     -35.45644060 [mEh]     -22.24925238 [kcal/mol]     -93.09087196 [kJ/mol]
      Ind20,r                     -65.55820253 [mEh]     -41.13839317 [kcal/mol]    -172.12303704 [kJ/mol]
      Ind22                       -13.75428039 [mEh]      -8.63094125 [kcal/mol]     -36.11185818 [kJ/mol]
      Exch-Ind20,r                 37.81063530 [mEh]      23.72653186 [kcal/mol]      99.27180932 [kJ/mol]
      Exch-Ind22                    7.93276904 [mEh]       4.97788773 [kcal/mol]      20.82748225 [kJ/mol]
      delta HF,r (2)               -1.88736202 [mEh]      -1.18433755 [kcal/mol]      -4.95526831 [kJ/mol]

    Dispersion                    -14.08160696 [mEh]      -8.83634177 [kcal/mol]     -36.97125398 [kJ/mol]
      Disp20                      -16.46955186 [mEh]     -10.33479982 [kcal/mol]     -43.24080246 [kJ/mol]
      Disp21                        2.33610041 [mEh]       1.46592514 [kcal/mol]       6.13343079 [kJ/mol]
      Disp22 (SDQ)                 -0.24286157 [mEh]      -0.15239794 [kcal/mol]      -0.63763298 [kJ/mol]
      Disp22 (T)                   -1.81801306 [mEh]      -1.14082042 [kcal/mol]      -4.77319264 [kJ/mol]
      Est. Disp22 (T)              -1.95362536 [mEh]      -1.22591842 [kcal/mol]      -5.12924268 [kJ/mol]
      Exch-Disp20                   2.24833142 [mEh]       1.41084927 [kcal/mol]       5.90299334 [kJ/mol]

  Total HF                        -90.64285554 [mEh]     -56.87925058 [kcal/mol]    -237.98278442 [kJ/mol]
  Total SAPT0                    -104.86407597 [mEh]     -65.80320113 [kcal/mol]    -275.32059354 [kJ/mol]
  Total SAPT2                    -101.99446408 [mEh]     -64.00249248 [kcal/mol]    -267.78642855 [kJ/mol]
  Total SAPT2+                   -101.85485060 [mEh]     -63.91488370 [kcal/mol]    -267.41987342 [kJ/mol]

  Special recipe for scaled SAPT0 (see Manual):
    Electrostatics sSAPT0        -110.50104842 [mEh]     -69.34045475 [kcal/mol]    -290.12046266 [kJ/mol]
    Exchange sSAPT0                49.49312214 [mEh]      31.05740303 [kcal/mol]     129.94417427 [kJ/mol]
    Induction sSAPT0              -29.33428642 [mEh]     -18.40754264 [kcal/mol]     -77.01715840 [kJ/mol]
    Dispersion sSAPT0             -14.20334333 [mEh]      -8.91273250 [kcal/mol]     -37.29087278 [kJ/mol]
  Total sSAPT0                   -104.54555604 [mEh]     -65.60332686 [kcal/mol]    -274.48431957 [kJ/mol]
  --------------------------------------------------------------------------------------------------------

*** Psi4 exiting successfully. Buy a developer a beer!
