                               Psi4 1.9 release

  ==> Input File <==

--------------------------------------------------------------------------
MEMORY 60 GB

molecule dimer {
1 1
K      0.000000     0.000000     0.000000
--
0 1
O      1.718018     0.231702     1.982918
H      2.030510    -0.589138     2.359944
H      1.757650     0.961818     2.605759
O     -1.357838     1.036276    -2.176719
H     -1.862644     1.908415    -2.195129
H     -2.093985     0.377470    -2.470949
O      0.093893    -2.699563    -1.187877
H     -0.368393    -3.368385    -0.686177
H      0.993326    -3.116036    -1.311465
O     -0.782278    -1.864644     1.959905
H     -0.286253    -2.712429     1.908728
H     -1.707732    -2.173103     2.104632

units ang
no_reorient
no_com
symmetry c1
}

set {
basis        aug-cc-pVTZ
scf_type     df
}

energy("sapt2+")
--------------------------------------------------------------------------

  //              Dimer HF             //
    Molecular point group: c1
  Charge       = 1
  Multiplicity = 1
  Basis Set: AUG-CC-PVTZ
    Blend: AUG-CC-PVTZ
  Basis Set: (AUG-CC-PVTZ AUX)
    Blend: AUG-CC-PVTZ-JKFIT + DEF2-UNIVERSAL-JKFIT
  @DF-RHF Final Energy:  -903.31693277954105
    Total Energy =                       -903.3169327795410481
 Dipole X            :          7.2735391           -7.8672341           -0.5936950
 Dipole Y            :         64.6988837          -66.2938979           -1.5950143
 Dipole Z            :        -12.2457779           13.1168895            0.8711116
 Magnitude           :                                                    1.9119047
  //            Monomer A HF           //
    Molecular point group: c1
  Multiplicity = 1
  Basis Set: AUG-CC-PVTZ
    Blend: AUG-CC-PVTZ
  Basis Set: (AUG-CC-PVTZ AUX)
    Blend: AUG-CC-PVTZ-JKFIT + DEF2-UNIVERSAL-JKFIT
  @DF-RHF Final Energy:  -599.01751420765106
    Total Energy =                       -599.0175142076509474
  //            Monomer B HF           //
    Molecular point group: c1

    Geometry (in Angstrom), charge = 0, multiplicity = 1:

       Center              X                  Y                   Z               Mass
    ------------   -----------------  -----------------  -----------------  -----------------
      Gh(K)           0.000000000000     0.000000000000     0.000000000000    38.963706486400
         O            1.718018000000     0.231702000000     1.982918000000    15.994914619570
         H            2.030510000000    -0.589138000000     2.359944000000     1.007825032230
         H            1.757650000000     0.961818000000     2.605759000000     1.007825032230
         O           -1.357838000000     1.036276000000    -2.176719000000    15.994914619570
         H           -1.862644000000     1.908415000000    -2.195129000000     1.007825032230
         H           -2.093985000000     0.377470000000    -2.470949000000     1.007825032230
         O            0.093893000000    -2.699563000000    -1.187877000000    15.994914619570
         H           -0.368393000000    -3.368385000000    -0.686177000000     1.007825032230
         H            0.993326000000    -3.116036000000    -1.311465000000     1.007825032230
         O           -0.782278000000    -1.864644000000     1.959905000000    15.994914619570
         H           -0.286253000000    -2.712429000000     1.908728000000     1.007825032230
         H           -1.707732000000    -2.173103000000     2.104632000000     1.007825032230

  Charge       = 0
  Multiplicity = 1
  Basis Set: AUG-CC-PVTZ
    Blend: AUG-CC-PVTZ
  Basis Set: (AUG-CC-PVTZ AUX)
    Blend: AUG-CC-PVTZ-JKFIT + DEF2-UNIVERSAL-JKFIT

    Orbital Energies [Eh]
    ---------------------

    Doubly Occupied:

       1A    -20.563008     2A    -20.560431     3A    -20.557999
       4A    -20.539330     5A     -1.334825     6A     -1.331293
       7A     -1.323326     8A     -1.304599     9A     -0.708590
      10A     -0.692446    11A     -0.687916    12A     -0.657230
      13A     -0.574355    14A     -0.571240    15A     -0.557022
      16A     -0.543740    17A     -0.504636    18A     -0.491494
      19A     -0.484929    20A     -0.482248

  @DF-RHF Final Energy:  -304.21322492358109

   => Energetics <=

    Nuclear Repulsion Energy =            110.2552489834488512
    One-Electron Energy =                -639.9956257351561817
    Two-Electron Energy =                 225.5271518281262502
    Total Energy =                       -304.2132249235810946
 Dipole X            :          7.3104748           -7.8672341           -0.5567593
 Dipole Y            :         64.9922109          -66.2938979           -1.3016871
 Dipole Z            :        -12.3525168           13.1168895            0.7643727
 Magnitude           :                                                    1.6089238

    SAPT Results
  --------------------------------------------------------------------------------------------------------
    Electrostatics                -90.73445135 [mEh]     -56.93672782 [kcal/mol]    -238.22326920 [kJ/mol]
      Elst10,r                    -94.86030879 [mEh]     -59.52574245 [kcal/mol]    -249.05570642 [kJ/mol]
      Elst12,r                      4.12585744 [mEh]       2.58901463 [kcal/mol]      10.83243722 [kJ/mol]

    Exchange                       30.12987574 [mEh]      18.90678247 [kcal/mol]      79.10597785 [kJ/mol]
      Exch10                       26.98168498 [mEh]      16.93126294 [kcal/mol]      70.84040415 [kJ/mol]
      Exch10(S^2)                  26.90634506 [mEh]      16.88398643 [kcal/mol]      70.64259921 [kJ/mol]
      Exch11(S^2)                  -0.08496933 [mEh]      -0.05331906 [kcal/mol]      -0.22308694 [kJ/mol]
      Exch12(S^2)                   3.23316009 [mEh]       2.02883859 [kcal/mol]       8.48866064 [kJ/mol]

    Induction                     -21.35893801 [mEh]     -13.40293595 [kcal/mol]     -56.07788401 [kJ/mol]
      Ind20,r                     -38.38027625 [mEh]     -24.08398695 [kcal/mol]    -100.76740141 [kJ/mol]
      Ind22                        -6.61053116 [mEh]      -4.14817093 [kcal/mol]     -17.35594718 [kJ/mol]
      Exch-Ind20,r                 20.70752975 [mEh]      12.99417110 [kcal/mol]      54.36761186 [kJ/mol]
      Exch-Ind22                    3.56661765 [mEh]       2.23808637 [kcal/mol]       9.36415335 [kJ/mol]
      delta HF,r (2)               -0.64227799 [mEh]      -0.40303553 [kcal/mol]      -1.68630064 [kJ/mol]

    Dispersion                     -7.33027664 [mEh]      -4.59981804 [kcal/mol]     -19.24563867 [kJ/mol]
      Disp20                       -8.48247940 [mEh]      -5.32283618 [kcal/mol]     -22.27074659 [kJ/mol]
      Disp21                        1.13883711 [mEh]       0.71463107 [kcal/mol]       2.99001641 [kJ/mol]
      Disp22 (SDQ)                 -0.09520820 [mEh]      -0.05974404 [kcal/mol]      -0.24996908 [kJ/mol]
      Disp22 (T)                   -0.87204451 [mEh]      -0.54721619 [kcal/mol]      -2.28955256 [kJ/mol]
      Est. Disp22 (T)              -0.95061929 [mEh]      -0.59652261 [kcal/mol]      -2.49585060 [kJ/mol]
      Exch-Disp20                   1.05919314 [mEh]       0.66465373 [kcal/mol]       2.78091121 [kJ/mol]

  Total HF                        -86.19364831 [mEh]     -54.08733089 [kcal/mol]    -226.30139246 [kJ/mol]
  Total SAPT0                     -93.61693457 [mEh]     -58.74551335 [kcal/mol]    -245.79122785 [kJ/mol]
  Total SAPT2                     -89.38679988 [mEh]     -56.09106376 [kcal/mol]    -234.68501075 [kJ/mol]
  Total SAPT2+                    -89.29379026 [mEh]     -56.03269934 [kcal/mol]    -234.44081403 [kJ/mol]

  Special recipe for scaled SAPT0 (see Manual):
    Electrostatics sSAPT0         -94.86030879 [mEh]     -59.52574245 [kcal/mol]    -249.05570642 [kJ/mol]
    Exchange sSAPT0                26.98168498 [mEh]      16.93126294 [kcal/mol]      70.84040415 [kJ/mol]
    Induction sSAPT0              -18.14058875 [mEh]     -11.38339130 [kcal/mol]     -47.62810919 [kJ/mol]
    Dispersion sSAPT0              -7.41436385 [mEh]      -4.65258356 [kcal/mol]     -19.46640960 [kJ/mol]
  Total sSAPT0                    -93.43357641 [mEh]     -58.63045436 [kcal/mol]    -245.30982106 [kJ/mol]
  --------------------------------------------------------------------------------------------------------

*** Psi4 exiting successfully. Buy a developer a beer!
