                               Psi4 1.9 release

  ==> Input File <==

--------------------------------------------------------------------------
MEMORY 60 GB

molecule dimer {
1 1
K      0.000000     0.000000     0.000000
--
0 1
O     -1.237201    -1.186877    -1.898620
H     -1.455599    -2.078405    -2.264946
H     -1.884303    -0.587869    -2.247465
O      1.982555    -1.627158    -0.050544
H      2.859228    -1.332600    -0.294042
H      2.024029    -2.574119    -0.007952
O      0.529545     2.030396     1.666827
H      0.081547     1.990380     2.491648
H      0.447311     2.993552     1.488365
O     -2.004583    -1.160979     1.036664
H     -2.719039    -0.691870     1.542242
H     -2.486547    -1.780673     0.451519

units ang
no_reorient
no_com
symmetry c1
}

set {
basis        aug-cc-pVTZ
scf_type     df
}

energy("sapt2+")
--------------------------------------------------------------------------

  //              Dimer HF             //
    Molecular point group: c1
  Charge       = 1
  Multiplicity = 1
  Basis Set: AUG-CC-PVTZ
    Blend: AUG-CC-PVTZ
  Basis Set: (AUG-CC-PVTZ AUX)
    Blend: AUG-CC-PVTZ-JKFIT + DEF2-UNIVERSAL-JKFIT
  @DF-RHF Final Energy:  -903.32797695949432
    Total Energy =                       -903.3279769594943218
 Dipole X            :         15.7973612          -16.9524402           -1.1550790
 Dipole Y            :         36.7128307          -37.0736827           -0.3608520
 Dipole Z            :        -13.7921510           13.5946614           -0.1974896
 Magnitude           :                                                    1.2261418
  //            Monomer A HF           //
    Molecular point group: c1
  Multiplicity = 1
  Basis Set: AUG-CC-PVTZ
    Blend: AUG-CC-PVTZ
  Basis Set: (AUG-CC-PVTZ AUX)
    Blend: AUG-CC-PVTZ-JKFIT + DEF2-UNIVERSAL-JKFIT
  @DF-RHF Final Energy:  -599.01751529166802
    Total Energy =                       -599.0175152916681327
  //            Monomer B HF           //
    Molecular point group: c1

    Geometry (in Angstrom), charge = 0, multiplicity = 1:

       Center              X                  Y                   Z               Mass
    ------------   -----------------  -----------------  -----------------  -----------------
      Gh(K)           0.000000000000     0.000000000000     0.000000000000    38.963706486400
         O           -1.237201000000    -1.186877000000    -1.898620000000    15.994914619570
         H           -1.455599000000    -2.078405000000    -2.264946000000     1.007825032230
         H           -1.884303000000    -0.587869000000    -2.247465000000     1.007825032230
         O            1.982555000000    -1.627158000000    -0.050544000000    15.994914619570
         H            2.859228000000    -1.332600000000    -0.294042000000     1.007825032230
         H            2.024029000000    -2.574119000000    -0.007952000000     1.007825032230
         O            0.529545000000     2.030396000000     1.666827000000    15.994914619570
         H            0.081547000000     1.990380000000     2.491648000000     1.007825032230
         H            0.447311000000     2.993552000000     1.488365000000     1.007825032230
         O           -2.004583000000    -1.160979000000     1.036664000000    15.994914619570
         H           -2.719039000000    -0.691870000000     1.542242000000     1.007825032230
         H           -2.486547000000    -1.780673000000     0.451519000000     1.007825032230

  Charge       = 0
  Multiplicity = 1
  Basis Set: AUG-CC-PVTZ
    Blend: AUG-CC-PVTZ
  Basis Set: (AUG-CC-PVTZ AUX)
    Blend: AUG-CC-PVTZ-JKFIT + DEF2-UNIVERSAL-JKFIT

    Orbital Energies [Eh]
    ---------------------

    Doubly Occupied:

       1A    -20.551004     2A    -20.549814     3A    -20.545804
       4A    -20.536286     5A     -1.335389     6A     -1.330551
       7A     -1.325310     8A     -1.312724     9A     -0.698843
      10A     -0.694223    11A     -0.684983    12A     -0.676301
      13A     -0.572342    14A     -0.561319    15A     -0.550263
      16A     -0.549690    17A     -0.497180    18A     -0.490684
      19A     -0.480039    20A     -0.475378

  @DF-RHF Final Energy:  -304.22336221216119

   => Energetics <=

    Nuclear Repulsion Energy =            113.1071586573678474
    One-Electron Energy =                -645.8247843344165631
    Two-Electron Energy =                 228.4942634648875810
    Total Energy =                       -304.2233622121611916
 Dipole X            :         15.9307068          -16.9524402           -1.0217333
 Dipole Y            :         36.9837593          -37.0736827           -0.0899234
 Dipole Z            :        -13.8523398           13.5946614           -0.2576784
 Magnitude           :                                                    1.0575554

    SAPT Results
  --------------------------------------------------------------------------------------------------------
    Electrostatics               -110.23751437 [mEh]     -69.17508463 [kcal/mol]    -289.42855410 [kJ/mol]
      Elst10,r                   -115.33000921 [mEh]     -72.37067339 [kcal/mol]    -302.79889746 [kJ/mol]
      Elst12,r                      5.09249484 [mEh]       3.19558876 [kcal/mol]      13.37034336 [kJ/mol]

    Exchange                       56.34480711 [mEh]      35.35690026 [kcal/mol]     147.93327069 [kJ/mol]
      Exch10                       51.92945823 [mEh]      32.58622701 [kcal/mol]     136.34077381 [kJ/mol]
      Exch10(S^2)                  51.72225977 [mEh]      32.45620801 [kcal/mol]     135.79677432 [kJ/mol]
      Exch11(S^2)                  -0.26385793 [mEh]      -0.16557335 [kcal/mol]      -0.69275889 [kJ/mol]
      Exch12(S^2)                   4.67920680 [mEh]       2.93624660 [kcal/mol]      12.28525577 [kJ/mol]

    Induction                     -27.23477835 [mEh]     -17.09008143 [kcal/mol]     -71.50490069 [kJ/mol]
      Ind20,r                     -59.11880618 [mEh]     -37.09761096 [kcal/mol]    -155.21640425 [kJ/mol]
      Ind22                        -9.38915054 [mEh]      -5.89178092 [kcal/mol]     -24.65121135 [kJ/mol]
      Exch-Ind20,r                 36.85517025 [mEh]      23.12696849 [kcal/mol]      96.76323617 [kJ/mol]
      Exch-Ind22                    5.85327689 [mEh]       3.67298670 [kcal/mol]      15.36777635 [kJ/mol]
      delta HF,r (2)               -1.43526876 [mEh]      -0.90064475 [kcal/mol]      -3.76829762 [kJ/mol]

    Dispersion                    -10.81963114 [mEh]      -6.78942104 [kcal/mol]     -28.40693763 [kJ/mol]
      Disp20                      -13.14500159 [mEh]      -8.24861303 [kcal/mol]     -34.51219693 [kJ/mol]
      Disp21                        1.83576983 [mEh]       1.15196296 [kcal/mol]       4.81981302 [kJ/mol]
      Disp22 (SDQ)                 -0.11743632 [mEh]      -0.07369240 [kcal/mol]      -0.30832901 [kJ/mol]
      Disp22 (T)                   -1.31002540 [mEh]      -0.82205335 [kcal/mol]      -3.43947122 [kJ/mol]
      Est. Disp22 (T)              -1.42574540 [mEh]      -0.89466874 [kcal/mol]      -3.74329403 [kJ/mol]
      Exch-Disp20                   2.03278235 [mEh]       1.27559018 [kcal/mol]       5.33706932 [kJ/mol]

  Total HF                        -87.09945567 [mEh]     -54.65573359 [kcal/mol]    -228.67958934 [kJ/mol]
  Total SAPT0                     -98.21167491 [mEh]     -61.62875644 [kcal/mol]    -257.85471696 [kJ/mol]
  Total SAPT2                     -92.23970485 [mEh]     -57.88128865 [kcal/mol]    -242.17531172 [kJ/mol]
  Total SAPT2+                    -91.94711674 [mEh]     -57.69768684 [kcal/mol]    -241.40712174 [kJ/mol]

  Special recipe for scaled SAPT0 (see Manual):
    Electrostatics sSAPT0        -115.33000921 [mEh]     -72.37067339 [kcal/mol]    -302.79889746 [kJ/mol]
    Exchange sSAPT0                51.92945823 [mEh]      32.58622701 [kcal/mol]     136.34077381 [kJ/mol]
    Induction sSAPT0              -23.25420448 [mEh]     -14.59223362 [kcal/mol]     -61.05390546 [kJ/mol]
    Dispersion sSAPT0             -11.08769138 [mEh]      -6.95763138 [kcal/mol]     -29.11072971 [kJ/mol]
  Total sSAPT0                    -97.74244684 [mEh]     -61.33431138 [kcal/mol]    -256.62275882 [kJ/mol]
  --------------------------------------------------------------------------------------------------------

*** Psi4 exiting successfully. Buy a developer a beer!
