                               Psi4 1.9 release

  ==> Input File <==

--------------------------------------------------------------------------
MEMORY 60 GB

molecule dimer {
1 1
K      0.000000     0.000000     0.000000
--
0 1
O      0.934950     1.557658     1.866682
H      1.223641     2.403238     1.526633
H      1.560546     1.275463     2.571452
O     -0.413699    -2.204341    -1.603818
H     -1.436891    -2.151326    -1.552654
H     -0.309238    -2.351733    -2.534913
O      2.387388    -0.706598     0.434979
H      3.112159    -1.260928     0.324550
H      2.611801    -0.158530     1.180506
O     -2.888982    -0.504542     0.112087
H     -3.193254    -0.834635     0.984426
H     -3.583834     0.130394    -0.063180
O      2.029999     0.579035    -1.935349
H      2.782212     0.571319    -1.253322
H      2.354613     1.285694    -2.436344
O     -0.653789    -1.945918     2.055554
H     -0.923902    -1.843674     2.940345
H     -1.151574    -2.735000     1.778164

units ang
no_reorient
no_com
symmetry c1
}

set {
basis        aug-cc-pVTZ
scf_type     df
}

energy("sapt2+")
--------------------------------------------------------------------------

  //              Dimer HF             //
    Molecular point group: c1
  Charge       = 1
  Multiplicity = 1
  Basis Set: AUG-CC-PVTZ
    Blend: AUG-CC-PVTZ
  Basis Set: (AUG-CC-PVTZ AUX)
    Blend: AUG-CC-PVTZ-JKFIT + DEF2-UNIVERSAL-JKFIT
  @DF-RHF Final Energy: -1055.45279422254362
    Total Energy =                      -1055.4527942225436163
 Dipole X            :        -26.5488299           26.8590837            0.3102538
 Dipole Y            :         59.7389734          -59.4647036            0.2742698
 Dipole Z            :        -19.3918137           20.6107572            1.2189435
 Magnitude           :                                                    1.2873635
  //            Monomer A HF           //
    Molecular point group: c1
  Multiplicity = 1
  Basis Set: AUG-CC-PVTZ
    Blend: AUG-CC-PVTZ
  Basis Set: (AUG-CC-PVTZ AUX)
    Blend: AUG-CC-PVTZ-JKFIT + DEF2-UNIVERSAL-JKFIT
  @DF-RHF Final Energy:  -599.01751682445399
    Total Energy =                       -599.0175168244539918
  //            Monomer B HF           //
    Molecular point group: c1

    Geometry (in Angstrom), charge = 0, multiplicity = 1:

       Center              X                  Y                   Z               Mass
    ------------   -----------------  -----------------  -----------------  -----------------
      Gh(K)           0.000000000000     0.000000000000     0.000000000000    38.963706486400
         O            0.934950000000     1.557658000000     1.866682000000    15.994914619570
         H            1.223641000000     2.403238000000     1.526633000000     1.007825032230
         H            1.560546000000     1.275463000000     2.571452000000     1.007825032230
         O           -0.413699000000    -2.204341000000    -1.603818000000    15.994914619570
         H           -1.436891000000    -2.151326000000    -1.552654000000     1.007825032230
         H           -0.309238000000    -2.351733000000    -2.534913000000     1.007825032230
         O            2.387388000000    -0.706598000000     0.434979000000    15.994914619570
         H            3.112159000000    -1.260928000000     0.324550000000     1.007825032230
         H            2.611801000000    -0.158530000000     1.180506000000     1.007825032230
         O           -2.888982000000    -0.504542000000     0.112087000000    15.994914619570
         H           -3.193254000000    -0.834635000000     0.984426000000     1.007825032230
         H           -3.583834000000     0.130394000000    -0.063180000000     1.007825032230
         O            2.029999000000     0.579035000000    -1.935349000000    15.994914619570
         H            2.782212000000     0.571319000000    -1.253322000000     1.007825032230
         H            2.354613000000     1.285694000000    -2.436344000000     1.007825032230
         O           -0.653789000000    -1.945918000000     2.055554000000    15.994914619570
         H           -0.923902000000    -1.843674000000     2.940345000000     1.007825032230
         H           -1.151574000000    -2.735000000000     1.778164000000     1.007825032230

  Charge       = 0
  Multiplicity = 1
  Basis Set: AUG-CC-PVTZ
    Blend: AUG-CC-PVTZ
  Basis Set: (AUG-CC-PVTZ AUX)
    Blend: AUG-CC-PVTZ-JKFIT + DEF2-UNIVERSAL-JKFIT

    Orbital Energies [Eh]
    ---------------------

    Doubly Occupied:

       1A    -20.555618     2A    -20.553670     3A    -20.540035
       4A    -20.533496     5A    -20.525901     6A    -20.524867
       7A     -1.339659     8A     -1.333907     9A     -1.332447
      10A     -1.331072    11A     -1.309250    12A     -1.294129
      13A     -0.711329    14A     -0.698446    15A     -0.689390
      16A     -0.682564    17A     -0.655051    18A     -0.644225
      19A     -0.574423    20A     -0.563589    21A     -0.558381
      22A     -0.554371    23A     -0.549753    24A     -0.536756
      25A     -0.495814    26A     -0.493614    27A     -0.483394
      28A     -0.480227    29A     -0.465458    30A     -0.459538

  @DF-RHF Final Energy:  -456.32298416630636

   => Energetics <=

    Nuclear Repulsion Energy =            251.2041347741642312
    One-Electron Energy =               -1132.1134754945965142
    Two-Electron Energy =                 424.5863565541259277
    Total Energy =                       -456.3229841663063553
 Dipole X            :        -26.7695300           26.8590837            0.0895537
 Dipole Y            :         59.9966093          -59.4647036            0.5319057
 Dipole Z            :        -19.4998822           20.6107572            1.1108750
 Magnitude           :                                                    1.2349035

    SAPT Results
  --------------------------------------------------------------------------------------------------------
    Electrostatics               -121.41883904 [mEh]     -76.19147180 [kcal/mol]    -318.78511799 [kJ/mol]
      Elst10,r                   -128.11723128 [mEh]     -80.39477638 [kcal/mol]    -336.37174439 [kJ/mol]
      Elst12,r                      6.69839224 [mEh]       4.20330459 [kcal/mol]      17.58662640 [kJ/mol]

    Exchange                       46.73812062 [mEh]      29.32861347 [kcal/mol]     122.71091877 [kJ/mol]
      Exch10                       42.43627541 [mEh]      26.62916485 [kcal/mol]     111.41642575 [kJ/mol]
      Exch10(S^2)                  42.27455267 [mEh]      26.52768230 [kcal/mol]     110.99182275 [kJ/mol]
      Exch11(S^2)                  -0.34901279 [mEh]      -0.21900883 [kcal/mol]      -0.91633294 [kJ/mol]
      Exch12(S^2)                   4.65085799 [mEh]       2.91845745 [kcal/mol]      12.21082596 [kJ/mol]

    Induction                     -30.89204096 [mEh]     -19.38504837 [kcal/mol]     -81.10704236 [kJ/mol]
      Ind20,r                     -53.22561272 [mEh]     -33.39957623 [kcal/mol]    -139.74382695 [kJ/mol]
      Ind22                        -9.10899954 [mEh]      -5.71598351 [kcal/mol]     -23.91567499 [kJ/mol]
      Exch-Ind20,r                 28.21813349 [mEh]      17.70714610 [kcal/mol]      74.08669928 [kJ/mol]
      Exch-Ind22                    4.82923449 [mEh]       3.03039040 [kcal/mol]      12.67915342 [kJ/mol]
      delta HF,r (2)               -1.60479669 [mEh]      -1.00702512 [kcal/mol]      -4.21339312 [kJ/mol]

    Dispersion                    -11.79267238 [mEh]      -7.40001364 [kcal/mol]     -30.96165706 [kJ/mol]
      Disp20                      -13.88137188 [mEh]      -8.71069236 [kcal/mol]     -36.44553685 [kJ/mol]
      Disp21                        2.09187534 [mEh]       1.31267159 [kcal/mol]       5.49221795 [kJ/mol]
      Disp22 (SDQ)                 -0.19958661 [mEh]      -0.12524249 [kcal/mol]      -0.52401457 [kJ/mol]
      Disp22 (T)                   -1.45015492 [mEh]      -0.90998595 [kcal/mol]      -3.80738123 [kJ/mol]
      Est. Disp22 (T)              -1.56558701 [mEh]      -0.98242068 [kcal/mol]      -4.11044814 [kJ/mol]
      Exch-Disp20                   1.76199779 [mEh]       1.10567030 [kcal/mol]       4.62612455 [kJ/mol]

  Total HF                       -112.29323178 [mEh]     -70.46506679 [kcal/mol]    -294.82583943 [kJ/mol]
  Total SAPT0                    -124.41260588 [mEh]     -78.07008885 [kcal/mol]    -326.64525173 [kJ/mol]
  Total SAPT2                    -117.69213348 [mEh]     -73.85292875 [kcal/mol]    -309.00065389 [kJ/mol]
  Total SAPT2+                   -117.36543176 [mEh]     -73.64792033 [kcal/mol]    -308.14289864 [kJ/mol]

  Special recipe for scaled SAPT0 (see Manual):
    Electrostatics sSAPT0        -128.11723128 [mEh]     -80.39477638 [kcal/mol]    -336.37174439 [kJ/mol]
    Exchange sSAPT0                42.43627541 [mEh]      26.62916485 [kcal/mol]     111.41642575 [kJ/mol]
    Induction sSAPT0              -26.28718715 [mEh]     -16.49545898 [kcal/mol]     -69.01700035 [kJ/mol]
    Dispersion sSAPT0             -12.09907489 [mEh]      -7.59228412 [kcal/mol]     -31.76611674 [kJ/mol]
  Total sSAPT0                   -124.06721791 [mEh]     -77.85335462 [kcal/mol]    -325.73843573 [kJ/mol]
  --------------------------------------------------------------------------------------------------------

*** Psi4 exiting successfully. Buy a developer a beer!
