                               Psi4 1.9 release

  ==> Input File <==

--------------------------------------------------------------------------
MEMORY 60 GB

molecule dimer {
1 1
K      0.000000     0.000000     0.000000
--
0 1
O      2.433312    -0.711261    -0.876073
H      3.025721     0.045558    -0.738606
H      2.646594    -0.978885    -1.800154
O      0.729442     2.374627     0.909651
H      1.436876     2.682600     1.537697
H      0.607664     3.130167     0.287856
O     -0.423164    -2.596708     0.556853
H     -0.086692    -3.420156     0.268816
H     -0.158458    -2.540686     1.533756
O     -2.766398    -1.080563     0.470208
H     -2.207598    -1.857753     0.314154
H     -3.672582    -1.339756     0.204091
O     -0.915396    -1.287261    -2.285458
H     -1.083095    -2.273539    -2.500910
H     -0.460494    -0.980307    -3.123591

units ang
no_reorient
no_com
symmetry c1
}

set {
basis        aug-cc-pVTZ
scf_type     df
}

energy("sapt2+")
--------------------------------------------------------------------------

  //              Dimer HF             //
    Molecular point group: c1
  Charge       = 1
  Multiplicity = 1
  Basis Set: AUG-CC-PVTZ
    Blend: AUG-CC-PVTZ
  Basis Set: (AUG-CC-PVTZ AUX)
    Blend: AUG-CC-PVTZ-JKFIT + DEF2-UNIVERSAL-JKFIT
  @DF-RHF Final Energy:  -979.38175385064278
    Total Energy =                       -979.3817538506427809
 Dipole X            :         15.5899409          -14.1534742            1.4364667
 Dipole Y            :         63.2783951          -64.1412448           -0.8628497
 Dipole Z            :         24.9873361          -26.1074036           -1.1200675
 Magnitude           :                                                    2.0155638
  //            Monomer A HF           //
    Molecular point group: c1
  Multiplicity = 1
  Basis Set: AUG-CC-PVTZ
    Blend: AUG-CC-PVTZ
  Basis Set: (AUG-CC-PVTZ AUX)
    Blend: AUG-CC-PVTZ-JKFIT + DEF2-UNIVERSAL-JKFIT
  @DF-RHF Final Energy:  -599.01751611363306
    Total Energy =                       -599.0175161136330644
  //            Monomer B HF           //
    Molecular point group: c1

    Geometry (in Angstrom), charge = 0, multiplicity = 1:

       Center              X                  Y                   Z               Mass
    ------------   -----------------  -----------------  -----------------  -----------------
      Gh(K)           0.000000000000     0.000000000000     0.000000000000    38.963706486400
         O            2.433312000000    -0.711261000000    -0.876073000000    15.994914619570
         H            3.025721000000     0.045558000000    -0.738606000000     1.007825032230
         H            2.646594000000    -0.978885000000    -1.800154000000     1.007825032230
         O            0.729442000000     2.374627000000     0.909651000000    15.994914619570
         H            1.436876000000     2.682600000000     1.537697000000     1.007825032230
         H            0.607664000000     3.130167000000     0.287856000000     1.007825032230
         O           -0.423164000000    -2.596708000000     0.556853000000    15.994914619570
         H           -0.086692000000    -3.420156000000     0.268816000000     1.007825032230
         H           -0.158458000000    -2.540686000000     1.533756000000     1.007825032230
         O           -2.766398000000    -1.080563000000     0.470208000000    15.994914619570
         H           -2.207598000000    -1.857753000000     0.314154000000     1.007825032230
         H           -3.672582000000    -1.339756000000     0.204091000000     1.007825032230
         O           -0.915396000000    -1.287261000000    -2.285458000000    15.994914619570
         H           -1.083095000000    -2.273539000000    -2.500910000000     1.007825032230
         H           -0.460494000000    -0.980307000000    -3.123591000000     1.007825032230

  Charge       = 0
  Multiplicity = 1
  Basis Set: AUG-CC-PVTZ
    Blend: AUG-CC-PVTZ
  Basis Set: (AUG-CC-PVTZ AUX)
    Blend: AUG-CC-PVTZ-JKFIT + DEF2-UNIVERSAL-JKFIT

    Orbital Energies [Eh]
    ---------------------

    Doubly Occupied:

       1A    -20.560183     2A    -20.556673     3A    -20.555498
       4A    -20.554047     5A    -20.510794     6A     -1.340172
       7A     -1.326636     8A     -1.320613     9A     -1.306330
      10A     -1.287383    11A     -0.702988    12A     -0.684450
      13A     -0.683199    14A     -0.665405    15A     -0.658078
      16A     -0.571707    17A     -0.565928    18A     -0.560424
      19A     -0.554463    20A     -0.525059    21A     -0.498403
      22A     -0.492969    23A     -0.489521    24A     -0.481975
      25A     -0.451379

  @DF-RHF Final Energy:  -380.27089100134765

   => Energetics <=

    Nuclear Repulsion Energy =            175.3046013532508880
    One-Electron Energy =                -875.3424286843172695
    Two-Electron Energy =                 319.7669363297187601
    Total Energy =                       -380.2708910013476498
 Dipole X            :         15.5723020          -14.1534742            1.4188278
 Dipole Y            :         63.5511719          -64.1412448           -0.5900728
 Dipole Z            :         25.1591813          -26.1074036           -0.9482223
 Magnitude           :                                                    1.8056533

    SAPT Results
  --------------------------------------------------------------------------------------------------------
    Electrostatics               -100.37196966 [mEh]     -62.98436186 [kcal/mol]    -263.52657004 [kJ/mol]
      Elst10,r                   -105.75916589 [mEh]     -66.36487854 [kcal/mol]    -277.67065180 [kJ/mol]
      Elst12,r                      5.38719623 [mEh]       3.38051667 [kcal/mol]      14.14408176 [kJ/mol]

    Exchange                       39.20477837 [mEh]      24.60136984 [kcal/mol]     102.93213142 [kJ/mol]
      Exch10                       35.42787422 [mEh]      22.23132671 [kcal/mol]      93.01587094 [kJ/mol]
      Exch10(S^2)                  35.32822041 [mEh]      22.16879300 [kcal/mol]      92.75422992 [kJ/mol]
      Exch11(S^2)                  -0.22417677 [mEh]      -0.14067305 [kcal/mol]      -0.58857603 [kJ/mol]
      Exch12(S^2)                   4.00108092 [mEh]       2.51071618 [kcal/mol]      10.50483651 [kJ/mol]

    Induction                     -26.76103073 [mEh]     -16.79280031 [kcal/mol]     -70.26107649 [kJ/mol]
      Ind20,r                     -47.05473559 [mEh]     -29.52729237 [kcal/mol]    -123.54219126 [kJ/mol]
      Ind22                        -8.04256245 [mEh]      -5.04678413 [kcal/mol]     -21.11574480 [kJ/mol]
      Exch-Ind20,r                 25.14037746 [mEh]      15.77582503 [kcal/mol]      66.00605194 [kJ/mol]
      Exch-Ind22                    4.29697571 [mEh]       2.69639297 [kcal/mol]      11.28170817 [kJ/mol]
      delta HF,r (2)               -1.10108586 [mEh]      -0.69094181 [kcal/mol]      -2.89090053 [kJ/mol]

    Dispersion                     -9.86555612 [mEh]      -6.19072993 [kcal/mol]     -25.90201403 [kJ/mol]
      Disp20                      -11.55923748 [mEh]      -7.25353103 [kcal/mol]     -30.34877383 [kJ/mol]
      Disp21                        1.69046378 [mEh]       1.06078204 [kcal/mol]       4.43831205 [kJ/mol]
      Disp22 (SDQ)                 -0.14581691 [mEh]      -0.09150149 [kcal/mol]      -0.38284225 [kJ/mol]
      Disp22 (T)                   -1.20791618 [mEh]      -0.75797885 [kcal/mol]      -3.17138349 [kJ/mol]
      Est. Disp22 (T)              -1.30719450 [mEh]      -0.82027693 [kcal/mol]      -3.43203869 [kJ/mol]
      Exch-Disp20                   1.45622899 [mEh]       0.91379749 [kcal/mol]       3.82332868 [kJ/mol]

  Total HF                        -93.34673566 [mEh]     -58.57596097 [kcal/mol]    -245.08182072 [kJ/mol]
  Total SAPT0                    -103.44974416 [mEh]     -64.91569452 [kcal/mol]    -271.60726586 [kJ/mol]
  Total SAPT2                     -98.03123051 [mEh]     -61.51552587 [kcal/mol]    -257.38096026 [kJ/mol]
  Total SAPT2+                    -97.79377814 [mEh]     -61.36652226 [kcal/mol]    -256.75752914 [kJ/mol]

  Special recipe for scaled SAPT0 (see Manual):
    Electrostatics sSAPT0        -105.75916589 [mEh]     -66.36487854 [kcal/mol]    -277.67065180 [kJ/mol]
    Exchange sSAPT0                35.42787422 [mEh]      22.23132671 [kcal/mol]      93.01587094 [kJ/mol]
    Induction sSAPT0              -22.80209546 [mEh]     -14.30853092 [kcal/mol]     -59.86689339 [kJ/mol]
    Dispersion sSAPT0             -10.09065051 [mEh]      -6.33197879 [kcal/mol]     -26.49299927 [kJ/mol]
  Total sSAPT0                   -103.22403765 [mEh]     -64.77406155 [kcal/mol]    -271.01467351 [kJ/mol]
  --------------------------------------------------------------------------------------------------------

*** Psi4 exiting successfully. Buy a developer a beer!
