                               Psi4 1.9 release

  ==> Input File <==

--------------------------------------------------------------------------
MEMORY 60 GB

molecule dimer {
1 1
K      0.000000     0.000000     0.000000
--
0 1
O      0.614161    -2.662596    -1.000568
H     -0.113826    -3.251565    -1.198118
H      1.186112    -2.667876    -1.734079
O      0.729810     2.373837    -1.025151
H      1.167478     2.701220    -1.857432
H     -0.147525     2.842033    -0.995735
O     -1.008658     0.423253     2.460831
H     -0.735495    -0.358124     2.948601
H     -1.939879     0.354150     2.274018
O      2.850153    -0.237363     0.329338
H      3.197928    -1.122902     0.376841
H      3.494571     0.227443    -0.233883
O     -2.469746    -0.508728    -1.426203
H     -3.370408    -0.248234    -1.430514
H     -2.421727    -0.991925    -2.274776

units ang
no_reorient
no_com
symmetry c1
}

set {
basis        aug-cc-pVTZ
scf_type     df
}

energy("sapt2+")
--------------------------------------------------------------------------

  //              Dimer HF             //
    Molecular point group: c1
  Charge       = 1
  Multiplicity = 1
  Basis Set: AUG-CC-PVTZ
    Blend: AUG-CC-PVTZ
  Basis Set: (AUG-CC-PVTZ AUX)
    Blend: AUG-CC-PVTZ-JKFIT + DEF2-UNIVERSAL-JKFIT
  @DF-RHF Final Energy:  -979.40073031403904
    Total Energy =                       -979.4007303140390377
 Dipole X            :        -12.1158039           11.4195942           -0.6962097
 Dipole Y            :         13.1318404          -14.0001418           -0.8683014
 Dipole Z            :         15.9036227          -17.7995212           -1.8958985
 Magnitude           :                                                    2.1984282
  //            Monomer A HF           //
    Molecular point group: c1
  Multiplicity = 1
  Basis Set: AUG-CC-PVTZ
    Blend: AUG-CC-PVTZ
  Basis Set: (AUG-CC-PVTZ AUX)
    Blend: AUG-CC-PVTZ-JKFIT + DEF2-UNIVERSAL-JKFIT
  @DF-RHF Final Energy:  -599.01751574355376
    Total Energy =                       -599.0175157435538722
  //            Monomer B HF           //
    Molecular point group: c1

    Geometry (in Angstrom), charge = 0, multiplicity = 1:

       Center              X                  Y                   Z               Mass
    ------------   -----------------  -----------------  -----------------  -----------------
      Gh(K)           0.000000000000     0.000000000000     0.000000000000    38.963706486400
         O            0.614161000000    -2.662596000000    -1.000568000000    15.994914619570
         H           -0.113826000000    -3.251565000000    -1.198118000000     1.007825032230
         H            1.186112000000    -2.667876000000    -1.734079000000     1.007825032230
         O            0.729810000000     2.373837000000    -1.025151000000    15.994914619570
         H            1.167478000000     2.701220000000    -1.857432000000     1.007825032230
         H           -0.147525000000     2.842033000000    -0.995735000000     1.007825032230
         O           -1.008658000000     0.423253000000     2.460831000000    15.994914619570
         H           -0.735495000000    -0.358124000000     2.948601000000     1.007825032230
         H           -1.939879000000     0.354150000000     2.274018000000     1.007825032230
         O            2.850153000000    -0.237363000000     0.329338000000    15.994914619570
         H            3.197928000000    -1.122902000000     0.376841000000     1.007825032230
         H            3.494571000000     0.227443000000    -0.233883000000     1.007825032230
         O           -2.469746000000    -0.508728000000    -1.426203000000    15.994914619570
         H           -3.370408000000    -0.248234000000    -1.430514000000     1.007825032230
         H           -2.421727000000    -0.991925000000    -2.274776000000     1.007825032230

  Charge       = 0
  Multiplicity = 1
  Basis Set: AUG-CC-PVTZ
    Blend: AUG-CC-PVTZ
  Basis Set: (AUG-CC-PVTZ AUX)
    Blend: AUG-CC-PVTZ-JKFIT + DEF2-UNIVERSAL-JKFIT

    Orbital Energies [Eh]
    ---------------------

    Doubly Occupied:

       1A    -20.561281     2A    -20.548431     3A    -20.546688
       4A    -20.537486     5A    -20.534294     6A     -1.349048
       7A     -1.343775     8A     -1.320085     9A     -1.319902
      10A     -1.307316    11A     -0.716535    12A     -0.701714
      13A     -0.695136    14A     -0.680678    15A     -0.671101
      16A     -0.583211    17A     -0.565133    18A     -0.553406
      19A     -0.546696    20A     -0.545322    21A     -0.503571
      22A     -0.494946    23A     -0.479847    24A     -0.477619
      25A     -0.477506

  @DF-RHF Final Energy:  -380.28454410672765

   => Energetics <=

    Nuclear Repulsion Energy =            164.7952856723831871
    One-Electron Energy =                -854.0382002724421682
    Two-Electron Energy =                 308.9583704933313015
    Total Energy =                       -380.2845441067276511
 Dipole X            :        -12.1825291           11.4195942           -0.7629349
 Dipole Y            :         13.1391634          -14.0001418           -0.8609784
 Dipole Z            :         15.9989058          -17.7995212           -1.8006154
 Magnitude           :                                                    2.1367193

    SAPT Results
  --------------------------------------------------------------------------------------------------------
    Electrostatics               -103.95047900 [mEh]     -65.22991037 [kcal/mol]    -272.92194500 [kJ/mol]
      Elst10,r                   -108.29096146 [mEh]     -67.95360424 [kcal/mol]    -284.31788013 [kJ/mol]
      Elst12,r                      4.34048246 [mEh]       2.72369386 [kcal/mol]      11.39593513 [kJ/mol]

    Exchange                       34.92876675 [mEh]      21.91813204 [kcal/mol]      91.70546446 [kJ/mol]
      Exch10                       31.10420508 [mEh]      19.51818336 [kcal/mol]      81.66407919 [kJ/mol]
      Exch10(S^2)                  31.06408649 [mEh]      19.49300857 [kcal/mol]      81.55874784 [kJ/mol]
      Exch11(S^2)                  -0.19848635 [mEh]      -0.12455206 [kcal/mol]      -0.52112583 [kJ/mol]
      Exch12(S^2)                   4.02304801 [mEh]       2.52450074 [kcal/mol]      10.56251109 [kJ/mol]

    Induction                     -25.22870178 [mEh]     -15.83124938 [kcal/mol]     -66.23794740 [kJ/mol]
      Ind20,r                     -44.65967647 [mEh]     -28.02437008 [kcal/mol]    -117.25396442 [kJ/mol]
      Ind22                        -8.07629088 [mEh]      -5.06794904 [kcal/mol]     -21.20429879 [kJ/mol]
      Exch-Ind20,r                 23.95088322 [mEh]      15.02940613 [kcal/mol]      62.88303524 [kJ/mol]
      Exch-Ind22                    4.33129649 [mEh]       2.71792958 [kcal/mol]      11.37181736 [kJ/mol]
      delta HF,r (2)               -0.77491414 [mEh]      -0.48626596 [kcal/mol]      -2.03453679 [kJ/mol]

    Dispersion                     -8.82237641 [mEh]      -5.53612478 [kcal/mol]     -23.16314608 [kJ/mol]
      Disp20                      -10.18789356 [mEh]      -6.39299972 [kcal/mol]     -26.74831085 [kJ/mol]
      Disp21                        1.35878559 [mEh]       0.85265083 [kcal/mol]       3.56749108 [kJ/mol]
      Disp22 (SDQ)                 -0.11657644 [mEh]      -0.07315282 [kcal/mol]      -0.30607141 [kJ/mol]
      Disp22 (T)                   -1.06312463 [mEh]      -0.66712078 [kcal/mol]      -2.79123334 [kJ/mol]
      Est. Disp22 (T)              -1.14995595 [mEh]      -0.72160826 [kcal/mol]      -3.01920894 [kJ/mol]
      Exch-Disp20                   1.27326395 [mEh]       0.79898519 [kcal/mol]       3.34295403 [kJ/mol]

  Total HF                        -98.67046376 [mEh]     -61.91665079 [kcal/mol]    -259.05926691 [kJ/mol]
  Total SAPT0                    -107.58509337 [mEh]     -67.51066533 [kcal/mol]    -282.46462372 [kJ/mol]
  Total SAPT2                    -103.16504364 [mEh]     -64.73704225 [kcal/mol]    -270.85978476 [kJ/mol]
  Total SAPT2+                   -103.07279044 [mEh]     -64.67915249 [kcal/mol]    -270.61757402 [kJ/mol]

  Special recipe for scaled SAPT0 (see Manual):
    Electrostatics sSAPT0        -108.29096146 [mEh]     -67.95360424 [kcal/mol]    -284.31788013 [kJ/mol]
    Exchange sSAPT0                31.10420508 [mEh]      19.51818336 [kcal/mol]      81.66407919 [kJ/mol]
    Induction sSAPT0              -21.39079135 [mEh]     -13.42292422 [kcal/mol]     -56.16151495 [kJ/mol]
    Dispersion sSAPT0              -8.90969006 [mEh]      -5.59091492 [kcal/mol]     -23.39238802 [kJ/mol]
  Total sSAPT0                   -107.48723778 [mEh]     -67.44926002 [kcal/mol]    -282.20770391 [kJ/mol]
  --------------------------------------------------------------------------------------------------------

*** Psi4 exiting successfully. Buy a developer a beer!
