                               Psi4 1.9 release

  ==> Input File <==

--------------------------------------------------------------------------
MEMORY 60 GB

molecule dimer {
1 1
K      0.000000     0.000000     0.000000
--
0 1
O      0.381547    -2.552558    -1.504867
H      1.305011    -2.508122    -1.562112
H      0.195752    -3.068888    -0.743103
O     -2.152753    -1.918638    -0.513085
H     -3.032715    -1.893013    -0.107358
H     -2.129564    -2.762877    -0.889215
O      1.881209    -1.325987     1.692441
H      2.801171    -1.317073     1.472737
H      1.822881    -1.212799     2.637718
O     -0.856008     2.370718     1.286842
H     -1.091753     2.561565     2.221772
H     -0.547518     3.153373     0.860940
O     -0.195392     1.168538    -2.406268
H      0.427603     1.930953    -2.467495
H     -0.179593     0.694044    -3.196332

units ang
no_reorient
no_com
symmetry c1
}

set {
basis        aug-cc-pVTZ
scf_type     df
}

energy("sapt2+")
--------------------------------------------------------------------------

  //              Dimer HF             //
    Molecular point group: c1
  Charge       = 1
  Multiplicity = 1
  Basis Set: AUG-CC-PVTZ
    Blend: AUG-CC-PVTZ
  Basis Set: (AUG-CC-PVTZ AUX)
    Blend: AUG-CC-PVTZ-JKFIT + DEF2-UNIVERSAL-JKFIT
  @DF-RHF Final Energy:  -979.40238126912254
    Total Energy =                       -979.4023812691225430
 Dipole X            :         15.9391665          -15.0420329            0.8971336
 Dipole Y            :         42.4996451          -42.4928598            0.0067853
 Dipole Z            :         25.8411154          -25.1937229            0.6473925
 Magnitude           :                                                    1.1063507
  //            Monomer A HF           //
    Molecular point group: c1
  Multiplicity = 1
  Basis Set: AUG-CC-PVTZ
    Blend: AUG-CC-PVTZ
  Basis Set: (AUG-CC-PVTZ AUX)
    Blend: AUG-CC-PVTZ-JKFIT + DEF2-UNIVERSAL-JKFIT
  @DF-RHF Final Energy:  -599.01751566969267
    Total Energy =                       -599.0175156696925569
  //            Monomer B HF           //
    Molecular point group: c1

    Geometry (in Angstrom), charge = 0, multiplicity = 1:

       Center              X                  Y                   Z               Mass
    ------------   -----------------  -----------------  -----------------  -----------------
      Gh(K)           0.000000000000     0.000000000000     0.000000000000    38.963706486400
         O            0.381547000000    -2.552558000000    -1.504867000000    15.994914619570
         H            1.305011000000    -2.508122000000    -1.562112000000     1.007825032230
         H            0.195752000000    -3.068888000000    -0.743103000000     1.007825032230
         O           -2.152753000000    -1.918638000000    -0.513085000000    15.994914619570
         H           -3.032715000000    -1.893013000000    -0.107358000000     1.007825032230
         H           -2.129564000000    -2.762877000000    -0.889215000000     1.007825032230
         O            1.881209000000    -1.325987000000     1.692441000000    15.994914619570
         H            2.801171000000    -1.317073000000     1.472737000000     1.007825032230
         H            1.822881000000    -1.212799000000     2.637718000000     1.007825032230
         O           -0.856008000000     2.370718000000     1.286842000000    15.994914619570
         H           -1.091753000000     2.561565000000     2.221772000000     1.007825032230
         H           -0.547518000000     3.153373000000     0.860940000000     1.007825032230
         O           -0.195392000000     1.168538000000    -2.406268000000    15.994914619570
         H            0.427603000000     1.930953000000    -2.467495000000     1.007825032230
         H           -0.179593000000     0.694044000000    -3.196332000000     1.007825032230

  Charge       = 0
  Multiplicity = 1
  Basis Set: AUG-CC-PVTZ
    Blend: AUG-CC-PVTZ
  Basis Set: (AUG-CC-PVTZ AUX)
    Blend: AUG-CC-PVTZ-JKFIT + DEF2-UNIVERSAL-JKFIT

    Orbital Energies [Eh]
    ---------------------

    Doubly Occupied:

       1A    -20.554776     2A    -20.546273     3A    -20.535503
       4A    -20.535353     5A    -20.530515     6A     -1.345776
       7A     -1.337035     8A     -1.329049     9A     -1.327653
      10A     -1.323575    11A     -0.716405    12A     -0.710767
      13A     -0.706353    14A     -0.700190    15A     -0.684037
      16A     -0.571196    17A     -0.563335    18A     -0.551530
      19A     -0.550767    20A     -0.544002    21A     -0.499911
      22A     -0.488303    23A     -0.482970    24A     -0.480022
      25A     -0.477251

  @DF-RHF Final Energy:  -380.28667208628974

   => Energetics <=

    Nuclear Repulsion Energy =            168.4821071199381493
    One-Electron Energy =                -861.3524608199302293
    Two-Electron Energy =                 312.5836816137023106
    Total Energy =                       -380.2866720862897409
 Dipole X            :         16.0130037          -15.0420329            0.9709708
 Dipole Y            :         42.6113642          -42.4928598            0.1185045
 Dipole Z            :         25.9567076          -25.1937229            0.7629847
 Magnitude           :                                                    1.2405536

    SAPT Results
  --------------------------------------------------------------------------------------------------------
    Electrostatics                -99.21943456 [mEh]     -62.26113517 [kcal/mol]    -260.50058954 [kJ/mol]
      Elst10,r                   -103.64000353 [mEh]     -65.03508408 [kcal/mol]    -272.10679179 [kJ/mol]
      Elst12,r                      4.42056898 [mEh]       2.77394891 [kcal/mol]      11.60620225 [kJ/mol]

    Exchange                       28.96279457 [mEh]      18.17442798 [kcal/mol]      76.04180666 [kJ/mol]
      Exch10                       25.73051987 [mEh]      16.14614498 [kcal/mol]      67.55547061 [kJ/mol]
      Exch10(S^2)                  25.69214465 [mEh]      16.12206417 [kcal/mol]      67.45471648 [kJ/mol]
      Exch11(S^2)                  -0.13971810 [mEh]      -0.08767443 [kcal/mol]      -0.36682981 [kJ/mol]
      Exch12(S^2)                   3.37199279 [mEh]       2.11595742 [kcal/mol]       8.85316585 [kJ/mol]

    Induction                     -23.68419236 [mEh]     -14.86205509 [kcal/mol]     -62.18283848 [kJ/mol]
      Ind20,r                     -38.75767909 [mEh]     -24.32081081 [kcal/mol]    -101.75827242 [kJ/mol]
      Ind22                        -6.73773225 [mEh]      -4.22799082 [kcal/mol]     -17.68991358 [kJ/mol]
      Exch-Ind20,r                 19.19881015 [mEh]      12.04743525 [kcal/mol]      50.40646910 [kJ/mol]
      Exch-Ind22                    3.33756936 [mEh]       2.09435639 [kcal/mol]       8.76278715 [kJ/mol]
      delta HF,r (2)               -0.72516054 [mEh]      -0.45504511 [kcal/mol]      -1.90390873 [kJ/mol]

    Dispersion                     -7.99720141 [mEh]      -5.01831965 [kcal/mol]     -20.99664940 [kJ/mol]
      Disp20                       -9.11949004 [mEh]      -5.72256640 [kcal/mol]     -23.94321780 [kJ/mol]
      Disp21                        1.21216673 [mEh]       0.76064610 [kcal/mol]       3.18254330 [kJ/mol]
      Disp22 (SDQ)                 -0.11112343 [mEh]      -0.06973101 [kcal/mol]      -0.29175453 [kJ/mol]
      Disp22 (T)                   -0.95102324 [mEh]      -0.59677609 [kcal/mol]      -2.49691116 [kJ/mol]
      Est. Disp22 (T)              -1.03032695 [mEh]      -0.64653992 [kcal/mol]      -2.70512304 [kJ/mol]
      Exch-Disp20                   1.05157229 [mEh]       0.65987157 [kcal/mol]       2.76090267 [kJ/mol]

  Total HF                        -98.19351314 [mEh]     -61.61735976 [kcal/mol]    -257.80703323 [kJ/mol]
  Total SAPT0                    -106.26143089 [mEh]     -66.68005458 [kcal/mol]    -278.98934836 [kJ/mol]
  Total SAPT2                    -102.00875010 [mEh]     -64.01145710 [kcal/mol]    -267.82393650 [kJ/mol]
  Total SAPT2+                   -101.93803376 [mEh]     -63.96708192 [kcal/mol]    -267.63827077 [kJ/mol]

  Special recipe for scaled SAPT0 (see Manual):
    Electrostatics sSAPT0        -103.64000353 [mEh]     -65.03508408 [kcal/mol]    -272.10679179 [kJ/mol]
    Exchange sSAPT0                25.73051987 [mEh]      16.14614498 [kcal/mol]      67.55547061 [kJ/mol]
    Induction sSAPT0              -20.19787167 [mEh]     -12.67435582 [kcal/mol]     -53.02950476 [kJ/mol]
    Dispersion sSAPT0              -8.06319865 [mEh]      -5.05973354 [kcal/mol]     -21.16992513 [kJ/mol]
  Total sSAPT0                   -106.17055398 [mEh]     -66.62302846 [kcal/mol]    -278.75075106 [kJ/mol]
  --------------------------------------------------------------------------------------------------------

*** Psi4 exiting successfully. Buy a developer a beer!
