                               Psi4 1.9 release

  ==> Input File <==

--------------------------------------------------------------------------
MEMORY 60 GB

molecule dimer {
1 1
K      0.000000     0.000000     0.000000
--
0 1
O      2.076023    -1.563908     0.741741
H      2.860617    -0.996316     0.828705
H      1.615351    -1.618906     1.563939
O     -1.095486     0.399597     2.643072
H     -0.801901     1.238172     2.228137
H     -2.076198     0.356254     2.753986
O     -2.028741     1.602653    -1.083314
H     -2.848075     1.047294    -0.966116
H     -1.766923     1.523944    -2.040760
O      0.327369     2.348814     1.409380
H      0.118789     3.251871     1.602415
H      1.209539     2.243806     1.770572
O      2.277164     1.411722    -0.881632
H      2.742637     1.640937    -0.087027
H      2.895810     0.946922    -1.465846
O      0.049667    -1.666994    -2.004447
H     -0.029129    -1.163117    -2.830753
H      0.898871    -2.063134    -2.055004

units ang
no_reorient
no_com
symmetry c1
}

set {
basis        aug-cc-pVTZ
scf_type     df
}

energy("sapt2+")
--------------------------------------------------------------------------

  //              Dimer HF             //
    Molecular point group: c1
  Charge       = 1
  Multiplicity = 1
  Basis Set: AUG-CC-PVTZ
    Blend: AUG-CC-PVTZ
  Basis Set: (AUG-CC-PVTZ AUX)
    Blend: AUG-CC-PVTZ-JKFIT + DEF2-UNIVERSAL-JKFIT
  @DF-RHF Final Energy: -1055.44514959835351
    Total Energy =                      -1055.4451495983535096
 Dipole X            :        -32.1103063           33.3864642            1.2761579
 Dipole Y            :        -49.1474440           50.3853878            1.2379438
 Dipole Z            :        -15.2774226           14.9300609           -0.3473617
 Magnitude           :                                                    1.8115584
  //            Monomer A HF           //
    Molecular point group: c1
  Multiplicity = 1
  Basis Set: AUG-CC-PVTZ
    Blend: AUG-CC-PVTZ
  Basis Set: (AUG-CC-PVTZ AUX)
    Blend: AUG-CC-PVTZ-JKFIT + DEF2-UNIVERSAL-JKFIT
  @DF-RHF Final Energy:  -599.01751734240224
    Total Energy =                       -599.0175173424022432
  //            Monomer B HF           //
    Molecular point group: c1

    Geometry (in Angstrom), charge = 0, multiplicity = 1:

       Center              X                  Y                   Z               Mass
    ------------   -----------------  -----------------  -----------------  -----------------
      Gh(K)           0.000000000000     0.000000000000     0.000000000000    38.963706486400
         O            2.076023000000    -1.563908000000     0.741741000000    15.994914619570
         H            2.860617000000    -0.996316000000     0.828705000000     1.007825032230
         H            1.615351000000    -1.618906000000     1.563939000000     1.007825032230
         O           -1.095486000000     0.399597000000     2.643072000000    15.994914619570
         H           -0.801901000000     1.238172000000     2.228137000000     1.007825032230
         H           -2.076198000000     0.356254000000     2.753986000000     1.007825032230
         O           -2.028741000000     1.602653000000    -1.083314000000    15.994914619570
         H           -2.848075000000     1.047294000000    -0.966116000000     1.007825032230
         H           -1.766923000000     1.523944000000    -2.040760000000     1.007825032230
         O            0.327369000000     2.348814000000     1.409380000000    15.994914619570
         H            0.118789000000     3.251871000000     1.602415000000     1.007825032230
         H            1.209539000000     2.243806000000     1.770572000000     1.007825032230
         O            2.277164000000     1.411722000000    -0.881632000000    15.994914619570
         H            2.742637000000     1.640937000000    -0.087027000000     1.007825032230
         H            2.895810000000     0.946922000000    -1.465846000000     1.007825032230
         O            0.049667000000    -1.666994000000    -2.004447000000    15.994914619570
         H           -0.029129000000    -1.163117000000    -2.830753000000     1.007825032230
         H            0.898871000000    -2.063134000000    -2.055004000000     1.007825032230

  Charge       = 0
  Multiplicity = 1
  Basis Set: AUG-CC-PVTZ
    Blend: AUG-CC-PVTZ
  Basis Set: (AUG-CC-PVTZ AUX)
    Blend: AUG-CC-PVTZ-JKFIT + DEF2-UNIVERSAL-JKFIT

    Orbital Energies [Eh]
    ---------------------

    Doubly Occupied:

       1A    -20.574900     2A    -20.560023     3A    -20.550089
       4A    -20.545694     5A    -20.540667     6A    -20.517304
       7A     -1.369927     8A     -1.344650     9A     -1.330714
      10A     -1.328959    11A     -1.310177    12A     -1.288649
      13A     -0.730229    14A     -0.716108    15A     -0.710361
      16A     -0.692950    17A     -0.686252    18A     -0.678071
      19A     -0.595085    20A     -0.570143    21A     -0.559423
      22A     -0.555099    23A     -0.550255    24A     -0.532654
      25A     -0.506018    26A     -0.505770    27A     -0.487447
      28A     -0.484256    29A     -0.481422    30A     -0.459144

  @DF-RHF Final Energy:  -456.34254575408409

   => Energetics <=

    Nuclear Repulsion Energy =            250.7608379874708362
    One-Electron Energy =               -1130.6818782213063059
    Two-Electron Energy =                 423.5784944797513845
    Total Energy =                       -456.3425457540840853
 Dipole X            :        -32.2669245           33.3864642            1.1195397
 Dipole Y            :        -49.3179973           50.3853878            1.0673905
 Dipole Z            :        -15.2644754           14.9300609           -0.3344145
 Magnitude           :                                                    1.5825690

    SAPT Results
  --------------------------------------------------------------------------------------------------------
    Electrostatics               -103.26513555 [mEh]     -64.79985087 [kcal/mol]    -271.12257604 [kJ/mol]
      Elst10,r                   -105.09833901 [mEh]     -65.95020341 [kcal/mol]    -275.93565106 [kJ/mol]
      Elst12,r                      1.83320346 [mEh]       1.15035254 [kcal/mol]       4.81307502 [kJ/mol]

    Exchange                       52.29342509 [mEh]      32.81461966 [kcal/mol]     137.29636865 [kJ/mol]
      Exch10                       46.37478654 [mEh]      29.10061790 [kcal/mol]     121.75698529 [kJ/mol]
      Exch10(S^2)                  46.25132936 [mEh]      29.02314735 [kcal/mol]     121.43284852 [kJ/mol]
      Exch11(S^2)                  -0.50415178 [mEh]      -0.31636002 [kcal/mol]      -1.32365032 [kJ/mol]
      Exch12(S^2)                   6.42279033 [mEh]       4.03036178 [kcal/mol]      16.86303368 [kJ/mol]

    Induction                     -31.52024749 [mEh]     -19.77925392 [kcal/mol]     -82.75639839 [kJ/mol]
      Ind20,r                     -61.19589493 [mEh]     -38.40100383 [kcal/mol]    -160.66980001 [kJ/mol]
      Ind22                       -12.62587892 [mEh]      -7.92285864 [kcal/mol]     -33.14924054 [kJ/mol]
      Exch-Ind20,r                 36.19918189 [mEh]      22.71532958 [kcal/mol]      95.04093897 [kJ/mol]
      Exch-Ind22                    7.46858083 [mEh]       4.68660522 [kcal/mol]      19.60875626 [kJ/mol]
      delta HF,r (2)               -1.36623636 [mEh]      -0.85732626 [kcal/mol]      -3.58705306 [kJ/mol]

    Dispersion                    -12.37055426 [mEh]      -7.76263999 [kcal/mol]     -32.47888573 [kJ/mol]
      Disp20                      -14.45741569 [mEh]      -9.07216531 [kcal/mol]     -37.95793966 [kJ/mol]
      Disp21                        1.95870255 [mEh]       1.22910441 [kcal/mol]       5.14257284 [kJ/mol]
      Disp22 (SDQ)                 -0.20431441 [mEh]      -0.12820923 [kcal/mol]      -0.53642740 [kJ/mol]
      Disp22 (T)                   -1.56803237 [mEh]      -0.98395517 [kcal/mol]      -4.11686843 [kJ/mol]
      Est. Disp22 (T)              -1.69029080 [mEh]      -1.06067349 [kcal/mol]      -4.43785789 [kJ/mol]
      Exch-Disp20                   2.02276409 [mEh]       1.26930363 [kcal/mol]       5.31076638 [kJ/mol]

  Total HF                        -85.08650187 [mEh]     -53.39258601 [kcal/mol]    -223.39457988 [kJ/mol]
  Total SAPT0                     -97.52115347 [mEh]     -61.19544770 [kcal/mol]    -256.04175316 [kJ/mol]
  Total SAPT2                     -94.92660956 [mEh]     -59.56734681 [kcal/mol]    -249.22977906 [kJ/mol]
  Total SAPT2+                    -94.86251221 [mEh]     -59.52712512 [kcal/mol]    -249.06149150 [kJ/mol]

  Special recipe for scaled SAPT0 (see Manual):
    Electrostatics sSAPT0        -105.09833901 [mEh]     -65.95020341 [kcal/mol]    -275.93565106 [kJ/mol]
    Exchange sSAPT0                46.37478654 [mEh]      29.10061790 [kcal/mol]     121.75698529 [kJ/mol]
    Induction sSAPT0              -26.07229904 [mEh]     -16.36061465 [kcal/mol]     -68.45281170 [kJ/mol]
    Dispersion sSAPT0             -12.41841043 [mEh]      -7.79267020 [kcal/mol]     -32.60453210 [kJ/mol]
  Total sSAPT0                    -97.21426194 [mEh]     -61.00287036 [kcal/mol]    -255.23600957 [kJ/mol]
  --------------------------------------------------------------------------------------------------------

*** Psi4 exiting successfully. Buy a developer a beer!
