                               Psi4 1.9 release

  ==> Input File <==

--------------------------------------------------------------------------
MEMORY 60 GB

molecule dimer {
1 1
K      0.000000     0.000000     0.000000
--
0 1
O      0.118696    -2.770459     0.076879
H     -0.333969    -3.135341     0.830822
H      0.982084    -3.221411     0.111931
O      1.379726    -1.154328    -2.080253
H      2.056706    -1.833961    -2.058727
H      1.169543    -1.009891    -3.018870
O      2.724284     0.265425     0.841619
H      3.242030     1.067792     0.900161
H      2.990826    -0.377309     1.498758
O     -2.881305     0.223588     0.845452
H     -3.728837     0.040709     1.280940
H     -2.877352     1.133782     1.077537
O      0.197582     1.855176     2.126719
H     -0.684460     2.355019     2.158041
H      0.495535     1.708267     3.013621
O     -1.133798     2.421734    -1.164227
H     -0.805925     2.041723    -2.060813
H     -2.117470     2.513113    -1.178015

units ang
no_reorient
no_com
symmetry c1
}

set {
basis        aug-cc-pVTZ
scf_type     df
}

energy("sapt2+")
--------------------------------------------------------------------------

  //              Dimer HF             //
    Molecular point group: c1
  Charge       = 1
  Multiplicity = 1
  Basis Set: AUG-CC-PVTZ
    Blend: AUG-CC-PVTZ
  Basis Set: (AUG-CC-PVTZ AUX)
    Blend: AUG-CC-PVTZ-JKFIT + DEF2-UNIVERSAL-JKFIT
  @DF-RHF Final Energy: -1055.45253219252436
    Total Energy =                      -1055.4525321925243588
 Dipole X            :         -7.0290477            6.8600668           -0.1689809
 Dipole Y            :        -15.3951361           15.1396920           -0.2554440
 Dipole Z            :        -13.7470447           14.5979416            0.8508969
 Magnitude           :                                                    0.9043405
  //            Monomer A HF           //
    Molecular point group: c1
  Multiplicity = 1
  Basis Set: AUG-CC-PVTZ
    Blend: AUG-CC-PVTZ
  Basis Set: (AUG-CC-PVTZ AUX)
    Blend: AUG-CC-PVTZ-JKFIT + DEF2-UNIVERSAL-JKFIT
  @DF-RHF Final Energy:  -599.01751655365047
    Total Energy =                       -599.0175165536504664
  //            Monomer B HF           //
    Molecular point group: c1

    Geometry (in Angstrom), charge = 0, multiplicity = 1:

       Center              X                  Y                   Z               Mass
    ------------   -----------------  -----------------  -----------------  -----------------
      Gh(K)           0.000000000000     0.000000000000     0.000000000000    38.963706486400
         O            0.118696000000    -2.770459000000     0.076879000000    15.994914619570
         H           -0.333969000000    -3.135341000000     0.830822000000     1.007825032230
         H            0.982084000000    -3.221411000000     0.111931000000     1.007825032230
         O            1.379726000000    -1.154328000000    -2.080253000000    15.994914619570
         H            2.056706000000    -1.833961000000    -2.058727000000     1.007825032230
         H            1.169543000000    -1.009891000000    -3.018870000000     1.007825032230
         O            2.724284000000     0.265425000000     0.841619000000    15.994914619570
         H            3.242030000000     1.067792000000     0.900161000000     1.007825032230
         H            2.990826000000    -0.377309000000     1.498758000000     1.007825032230
         O           -2.881305000000     0.223588000000     0.845452000000    15.994914619570
         H           -3.728837000000     0.040709000000     1.280940000000     1.007825032230
         H           -2.877352000000     1.133782000000     1.077537000000     1.007825032230
         O            0.197582000000     1.855176000000     2.126719000000    15.994914619570
         H           -0.684460000000     2.355019000000     2.158041000000     1.007825032230
         H            0.495535000000     1.708267000000     3.013621000000     1.007825032230
         O           -1.133798000000     2.421734000000    -1.164227000000    15.994914619570
         H           -0.805925000000     2.041723000000    -2.060813000000     1.007825032230
         H           -2.117470000000     2.513113000000    -1.178015000000     1.007825032230

  Charge       = 0
  Multiplicity = 1
  Basis Set: AUG-CC-PVTZ
    Blend: AUG-CC-PVTZ
  Basis Set: (AUG-CC-PVTZ AUX)
    Blend: AUG-CC-PVTZ-JKFIT + DEF2-UNIVERSAL-JKFIT

    Orbital Energies [Eh]
    ---------------------

    Doubly Occupied:

       1A    -20.555380     2A    -20.547411     3A    -20.539334
       4A    -20.537819     5A    -20.533744     6A    -20.529855
       7A     -1.347133     8A     -1.321033     9A     -1.315083
      10A     -1.313632    11A     -1.309779    12A     -1.300665
      13A     -0.697846    14A     -0.686252    15A     -0.685835
      16A     -0.680646    17A     -0.676402    18A     -0.674032
      19A     -0.587421    20A     -0.557362    21A     -0.542774
      22A     -0.540896    23A     -0.537943    24A     -0.531741
      25A     -0.497823    26A     -0.478867    27A     -0.477962
      28A     -0.475589    29A     -0.474513    30A     -0.471000

  @DF-RHF Final Energy:  -456.32010485380778

   => Energetics <=

    Nuclear Repulsion Energy =            239.2244508477659224
    One-Electron Energy =               -1108.2375601312812705
    Two-Electron Energy =                 412.6930044297076279
    Total Energy =                       -456.3201048538077771
 Dipole X            :         -7.1104549            6.8600668           -0.2503881
 Dipole Y            :        -15.4101960           15.1396920           -0.2705039
 Dipole Z            :        -13.8182412           14.5979416            0.7797003
 Magnitude           :                                                    0.8624380

    SAPT Results
  --------------------------------------------------------------------------------------------------------
    Electrostatics               -112.91142672 [mEh]     -70.85298996 [kcal/mol]    -296.44891001 [kJ/mol]
      Elst10,r                   -119.11796104 [mEh]     -74.74764905 [kcal/mol]    -312.74416362 [kJ/mol]
      Elst12,r                      6.20653432 [mEh]       3.89465909 [kcal/mol]      16.29525361 [kJ/mol]

    Exchange                       31.30831133 [mEh]      19.64626197 [kcal/mol]      82.19996007 [kJ/mol]
      Exch10                       27.84760453 [mEh]      17.47463566 [kcal/mol]      73.11387561 [kJ/mol]
      Exch10(S^2)                  27.80847172 [mEh]      17.45007946 [kcal/mol]      73.01113245 [kJ/mol]
      Exch11(S^2)                  -0.21818717 [mEh]      -0.13691452 [kcal/mol]      -0.57285034 [kJ/mol]
      Exch12(S^2)                   3.67889398 [mEh]       2.30854082 [kcal/mol]       9.65893480 [kJ/mol]

    Induction                     -27.65279811 [mEh]     -17.35239279 [kcal/mol]     -72.60241144 [kJ/mol]
      Ind20,r                     -42.33484946 [mEh]     -26.56551910 [kcal/mol]    -111.15013193 [kJ/mol]
      Ind22                        -7.47909915 [mEh]      -4.69320557 [kcal/mol]     -19.63637212 [kJ/mol]
      Exch-Ind20,r                 19.62314880 [mEh]      12.31371177 [kcal/mol]      51.52057006 [kJ/mol]
      Exch-Ind22                    3.46672959 [mEh]       2.17540566 [kcal/mol]       9.10189730 [kJ/mol]
      delta HF,r (2)               -0.92872789 [mEh]      -0.58278555 [kcal/mol]      -2.43837475 [kJ/mol]

    Dispersion                     -9.49952762 [mEh]      -5.96104358 [kcal/mol]     -24.94100633 [kJ/mol]
      Disp20                      -10.86026607 [mEh]      -6.81491985 [kcal/mol]     -28.51362464 [kJ/mol]
      Disp21                        1.57360379 [mEh]       0.98745129 [kcal/mol]       4.13149618 [kJ/mol]
      Disp22 (SDQ)                 -0.14764079 [mEh]      -0.09264600 [kcal/mol]      -0.38763085 [kJ/mol]
      Disp22 (T)                   -1.16167893 [mEh]      -0.72896453 [kcal/mol]      -3.04998761 [kJ/mol]
      Est. Disp22 (T)              -1.24924199 [mEh]      -0.78391118 [kcal/mol]      -3.27988439 [kJ/mol]
      Exch-Disp20                   1.18401744 [mEh]       0.74298216 [kcal/mol]       3.10863737 [kJ/mol]

  Total HF                       -114.91078507 [mEh]     -72.10760627 [kcal/mol]    -301.69822463 [kJ/mol]
  Total SAPT0                    -124.58703369 [mEh]     -78.17954395 [kcal/mol]    -327.10321190 [kJ/mol]
  Total SAPT2                    -118.93216213 [mEh]     -74.63105847 [kcal/mol]    -312.25634864 [kJ/mol]
  Total SAPT2+                   -118.75544112 [mEh]     -74.52016436 [kcal/mol]    -311.79236770 [kJ/mol]

  Special recipe for scaled SAPT0 (see Manual):
    Electrostatics sSAPT0        -119.11796104 [mEh]     -74.74764905 [kcal/mol]    -312.74416362 [kJ/mol]
    Exchange sSAPT0                27.84760453 [mEh]      17.47463566 [kcal/mol]      73.11387561 [kJ/mol]
    Induction sSAPT0              -23.55746931 [mEh]     -14.78253517 [kcal/mol]     -61.85012715 [kJ/mol]
    Dispersion sSAPT0              -9.67124305 [mEh]      -6.06879664 [kcal/mol]     -25.39184513 [kJ/mol]
  Total sSAPT0                   -124.49906887 [mEh]     -78.12434519 [kcal/mol]    -326.87226029 [kJ/mol]
  --------------------------------------------------------------------------------------------------------

*** Psi4 exiting successfully. Buy a developer a beer!
