                               Psi4 1.9 release

  ==> Input File <==

--------------------------------------------------------------------------
MEMORY 60 GB

molecule dimer {
1 1
K      0.000000     0.000000     0.000000
--
0 1
O     -1.751492     0.085286    -1.989283
H     -1.556526     0.778721    -2.629799
H     -1.639405    -0.746256    -2.499389
O     -0.439277    -2.706628    -0.360941
H     -1.377830    -2.874844    -0.351162
H     -0.096285    -3.290016    -1.091408
O     -2.197605     0.631860     1.800529
H     -2.346144     1.016197     2.672356
H     -2.828298     0.855687     1.124615
O      0.383901     2.589354    -0.816677
H     -0.469103     3.021654    -0.740717
H      0.553527     2.490907    -1.733209
O      2.031074     0.400515    -2.119651
H      2.592574     1.107034    -1.763625
H      1.716904     0.550642    -2.989750
O      0.043549    -1.038957     2.817828
H     -0.779009    -0.692394     3.128335
H      0.717995    -0.476349     3.113344

units ang
no_reorient
no_com
symmetry c1
}

set {
basis        aug-cc-pVTZ
scf_type     df
}

energy("sapt2+")
--------------------------------------------------------------------------

  //              Dimer HF             //
    Molecular point group: c1
  Charge       = 1
  Multiplicity = 1
  Basis Set: AUG-CC-PVTZ
    Blend: AUG-CC-PVTZ
  Basis Set: (AUG-CC-PVTZ AUX)
    Blend: AUG-CC-PVTZ-JKFIT + DEF2-UNIVERSAL-JKFIT
  @DF-RHF Final Energy: -1055.45429613939723
    Total Energy =                      -1055.4542961393972291
 Dipole X            :         38.3132656          -39.5905182           -1.2772527
 Dipole Y            :         -1.5040018            2.7068872            1.2028854
 Dipole Z            :         15.5041588          -17.2077875           -1.7036288
 Magnitude           :                                                    2.4455385
  //            Monomer A HF           //
    Molecular point group: c1
  Multiplicity = 1
  Basis Set: AUG-CC-PVTZ
    Blend: AUG-CC-PVTZ
  Basis Set: (AUG-CC-PVTZ AUX)
    Blend: AUG-CC-PVTZ-JKFIT + DEF2-UNIVERSAL-JKFIT
  @DF-RHF Final Energy:  -599.01751704545700
    Total Energy =                       -599.0175170454569979
  //            Monomer B HF           //
    Molecular point group: c1

    Geometry (in Angstrom), charge = 0, multiplicity = 1:

       Center              X                  Y                   Z               Mass
    ------------   -----------------  -----------------  -----------------  -----------------
      Gh(K)           0.000000000000     0.000000000000     0.000000000000    38.963706486400
         O           -1.751492000000     0.085286000000    -1.989283000000    15.994914619570
         H           -1.556526000000     0.778721000000    -2.629799000000     1.007825032230
         H           -1.639405000000    -0.746256000000    -2.499389000000     1.007825032230
         O           -0.439277000000    -2.706628000000    -0.360941000000    15.994914619570
         H           -1.377830000000    -2.874844000000    -0.351162000000     1.007825032230
         H           -0.096285000000    -3.290016000000    -1.091408000000     1.007825032230
         O           -2.197605000000     0.631860000000     1.800529000000    15.994914619570
         H           -2.346144000000     1.016197000000     2.672356000000     1.007825032230
         H           -2.828298000000     0.855687000000     1.124615000000     1.007825032230
         O            0.383901000000     2.589354000000    -0.816677000000    15.994914619570
         H           -0.469103000000     3.021654000000    -0.740717000000     1.007825032230
         H            0.553527000000     2.490907000000    -1.733209000000     1.007825032230
         O            2.031074000000     0.400515000000    -2.119651000000    15.994914619570
         H            2.592574000000     1.107034000000    -1.763625000000     1.007825032230
         H            1.716904000000     0.550642000000    -2.989750000000     1.007825032230
         O            0.043549000000    -1.038957000000     2.817828000000    15.994914619570
         H           -0.779009000000    -0.692394000000     3.128335000000     1.007825032230
         H            0.717995000000    -0.476349000000     3.113344000000     1.007825032230

  Charge       = 0
  Multiplicity = 1
  Basis Set: AUG-CC-PVTZ
    Blend: AUG-CC-PVTZ
  Basis Set: (AUG-CC-PVTZ AUX)
    Blend: AUG-CC-PVTZ-JKFIT + DEF2-UNIVERSAL-JKFIT

    Orbital Energies [Eh]
    ---------------------

    Doubly Occupied:

       1A    -20.560663     2A    -20.550969     3A    -20.549953
       4A    -20.549520     5A    -20.540649     6A    -20.516419
       7A     -1.344254     8A     -1.337760     9A     -1.336662
      10A     -1.334721    11A     -1.317579    12A     -1.315420
      13A     -0.729699    14A     -0.728905    15A     -0.713561
      16A     -0.699474    17A     -0.691688    18A     -0.677445
      19A     -0.573357    20A     -0.567920    21A     -0.554013
      22A     -0.551632    23A     -0.549909    24A     -0.534751
      25A     -0.506806    26A     -0.495802    27A     -0.495030
      28A     -0.488923    29A     -0.477730    30A     -0.464276

  @DF-RHF Final Energy:  -456.33587555385651

   => Energetics <=

    Nuclear Repulsion Energy =            244.9520777864360355
    One-Electron Energy =               -1119.0649167085098270
    Two-Electron Energy =                 417.7769633682173094
    Total Energy =                       -456.3358755538565106
 Dipole X            :         38.5220673          -39.5905182           -1.0684509
 Dipole Y            :         -1.5062099            2.7068872            1.2006773
 Dipole Z            :         15.6621475          -17.2077875           -1.5456400
 Magnitude           :                                                    2.2298467

    SAPT Results
  --------------------------------------------------------------------------------------------------------
    Electrostatics               -108.05309211 [mEh]     -67.80433897 [kcal/mol]    -283.69335425 [kJ/mol]
      Elst10,r                   -111.96180658 [mEh]     -70.25709433 [kcal/mol]    -293.95568267 [kJ/mol]
      Elst12,r                      3.90871447 [mEh]       2.45275536 [kcal/mol]      10.26232842 [kJ/mol]

    Exchange                       39.55647280 [mEh]      24.82206143 [kcal/mol]     103.85550504 [kJ/mol]
      Exch10                       35.12137946 [mEh]      22.03899834 [kcal/mol]      92.21116907 [kJ/mol]
      Exch10(S^2)                  35.03301829 [mEh]      21.98355087 [kcal/mol]      91.97917685 [kJ/mol]
      Exch11(S^2)                  -0.31472462 [mEh]      -0.19749268 [kcal/mol]      -0.82630939 [kJ/mol]
      Exch12(S^2)                   4.74981797 [mEh]       2.98055577 [kcal/mol]      12.47064535 [kJ/mol]

    Induction                     -28.45946437 [mEh]     -17.85858351 [kcal/mol]     -74.72031340 [kJ/mol]
      Ind20,r                     -49.18522318 [mEh]     -30.86419352 [kcal/mol]    -129.13578568 [kJ/mol]
      Ind22                        -9.39711897 [mEh]      -5.89678118 [kcal/mol]     -24.67213246 [kJ/mol]
      Exch-Ind20,r                 26.17439132 [mEh]      16.42467852 [kcal/mol]      68.72085494 [kJ/mol]
      Exch-Ind22                    5.00076757 [mEh]       3.13802903 [kcal/mol]      13.12951346 [kJ/mol]
      delta HF,r (2)               -1.05228110 [mEh]      -0.66031636 [kcal/mol]      -2.76276365 [kJ/mol]

    Dispersion                    -10.41743464 [mEh]      -6.53703893 [kcal/mol]     -27.35097087 [kJ/mol]
      Disp20                      -11.96931525 [mEh]      -7.51085871 [kcal/mol]     -31.42543286 [kJ/mol]
      Disp21                        1.62303020 [mEh]       1.01846683 [kcal/mol]       4.26126520 [kJ/mol]
      Disp22 (SDQ)                 -0.16263922 [mEh]      -0.10205765 [kcal/mol]      -0.42700921 [kJ/mol]
      Disp22 (T)                   -1.29321382 [mEh]      -0.81150392 [kcal/mol]      -3.39533241 [kJ/mol]
      Est. Disp22 (T)              -1.38984635 [mEh]      -0.87214175 [kcal/mol]      -3.64904110 [kJ/mol]
      Exch-Disp20                   1.48133599 [mEh]       0.92955237 [kcal/mol]       3.88924710 [kJ/mol]

  Total HF                       -100.90354008 [mEh]     -63.31792734 [kcal/mol]    -264.92220799 [kJ/mol]
  Total SAPT0                    -111.39151935 [mEh]     -69.89923369 [kcal/mol]    -292.45839376 [kJ/mol]
  Total SAPT2                    -107.44406294 [mEh]     -67.42216739 [kcal/mol]    -282.09434838 [kJ/mol]
  Total SAPT2+                   -107.37351831 [mEh]     -67.37789997 [kcal/mol]    -281.90913349 [kJ/mol]

  Special recipe for scaled SAPT0 (see Manual):
    Electrostatics sSAPT0        -111.96180658 [mEh]     -70.25709433 [kcal/mol]    -293.95568267 [kJ/mol]
    Exchange sSAPT0                35.12137946 [mEh]      22.03899834 [kcal/mol]      92.21116907 [kJ/mol]
    Induction sSAPT0              -23.86455987 [mEh]     -14.97523740 [kcal/mol]     -62.65639330 [kJ/mol]
    Dispersion sSAPT0             -10.47674218 [mEh]      -6.57425497 [kcal/mol]     -27.50668280 [kJ/mol]
  Total sSAPT0                   -111.18172916 [mEh]     -69.76758836 [kcal/mol]    -291.90758970 [kJ/mol]
  --------------------------------------------------------------------------------------------------------

*** Psi4 exiting successfully. Buy a developer a beer!
