                               Psi4 1.9 release

  ==> Input File <==

--------------------------------------------------------------------------
MEMORY 60 GB

molecule dimer {
1 1
K      0.000000     0.000000     0.000000
--
0 1
O      1.886407     0.240145     1.661583
H      1.920610    -0.405878     2.387775
H      2.353759     1.017833     1.991534
O     -0.633228    -1.707611     2.107517
H     -1.150731    -2.494049     1.810318
H      0.219587    -1.976046     2.382454
O     -2.383593     0.511145    -0.855188
H     -2.763257     1.011932    -0.148038
H     -3.173879     0.141298    -1.269293
O     -0.850357    -2.107687    -1.303976
H     -1.442063    -2.761127    -0.786684
H     -0.824084    -2.400965    -2.266133

units ang
no_reorient
no_com
symmetry c1
}

set {
basis        aug-cc-pVTZ
scf_type     df
}

energy("sapt2+")
--------------------------------------------------------------------------

  //              Dimer HF             //
    Molecular point group: c1
  Charge       = 1
  Multiplicity = 1
  Basis Set: AUG-CC-PVTZ
    Blend: AUG-CC-PVTZ
  Basis Set: (AUG-CC-PVTZ AUX)
    Blend: AUG-CC-PVTZ-JKFIT + DEF2-UNIVERSAL-JKFIT
  @DF-RHF Final Energy:  -903.31314298064194
    Total Energy =                       -903.3131429806419419
 Dipole X            :         38.3806893          -39.1290962           -0.7484070
 Dipole Y            :         59.8013531          -61.1875669           -1.3862138
 Dipole Z            :        -31.4128635           32.0902349            0.6773714
 Magnitude           :                                                    1.7147984
  //            Monomer A HF           //
    Molecular point group: c1
  Multiplicity = 1
  Basis Set: AUG-CC-PVTZ
    Blend: AUG-CC-PVTZ
  Basis Set: (AUG-CC-PVTZ AUX)
    Blend: AUG-CC-PVTZ-JKFIT + DEF2-UNIVERSAL-JKFIT
  @DF-RHF Final Energy:  -599.01751493143411
    Total Energy =                       -599.0175149314341070
  //            Monomer B HF           //
    Molecular point group: c1

    Geometry (in Angstrom), charge = 0, multiplicity = 1:

       Center              X                  Y                   Z               Mass
    ------------   -----------------  -----------------  -----------------  -----------------
      Gh(K)           0.000000000000     0.000000000000     0.000000000000    38.963706486400
         O            1.886407000000     0.240145000000     1.661583000000    15.994914619570
         H            1.920610000000    -0.405878000000     2.387775000000     1.007825032230
         H            2.353759000000     1.017833000000     1.991534000000     1.007825032230
         O           -0.633228000000    -1.707611000000     2.107517000000    15.994914619570
         H           -1.150731000000    -2.494049000000     1.810318000000     1.007825032230
         H            0.219587000000    -1.976046000000     2.382454000000     1.007825032230
         O           -2.383593000000     0.511145000000    -0.855188000000    15.994914619570
         H           -2.763257000000     1.011932000000    -0.148038000000     1.007825032230
         H           -3.173879000000     0.141298000000    -1.269293000000     1.007825032230
         O           -0.850357000000    -2.107687000000    -1.303976000000    15.994914619570
         H           -1.442063000000    -2.761127000000    -0.786684000000     1.007825032230
         H           -0.824084000000    -2.400965000000    -2.266133000000     1.007825032230

  Charge       = 0
  Multiplicity = 1
  Basis Set: AUG-CC-PVTZ
    Blend: AUG-CC-PVTZ
  Basis Set: (AUG-CC-PVTZ AUX)
    Blend: AUG-CC-PVTZ-JKFIT + DEF2-UNIVERSAL-JKFIT

    Orbital Energies [Eh]
    ---------------------

    Doubly Occupied:

       1A    -20.556606     2A    -20.555041     3A    -20.552971
       4A    -20.541654     5A     -1.336917     6A     -1.332632
       7A     -1.330346     8A     -1.305321     9A     -0.717577
      10A     -0.696811    11A     -0.685655    12A     -0.675755
      13A     -0.566393    14A     -0.565047    15A     -0.559943
      16A     -0.544428    17A     -0.496550    18A     -0.492978
      19A     -0.491375    20A     -0.477309

  @DF-RHF Final Energy:  -304.21333184707697

   => Energetics <=

    Nuclear Repulsion Energy =            117.5478758223134292
    One-Electron Energy =                -654.5597915456436340
    Two-Electron Energy =                 232.7985838762532182
    Total Energy =                       -304.2133318470769154
 Dipole X            :         38.6112733          -39.1290962           -0.5178229
 Dipole Y            :         60.1590497          -61.1875669           -1.0285172
 Dipole Z            :        -31.5571856           32.0902349            0.5330493
 Magnitude           :                                                    1.2689089

    SAPT Results
  --------------------------------------------------------------------------------------------------------
    Electrostatics               -100.66047873 [mEh]     -63.16540404 [kcal/mol]    -264.28405049 [kJ/mol]
      Elst10,r                   -105.38371372 [mEh]     -66.12927874 [kcal/mol]    -276.68490225 [kJ/mol]
      Elst12,r                      4.72323499 [mEh]       2.96387470 [kcal/mol]      12.40085175 [kJ/mol]

    Exchange                       49.66543950 [mEh]      31.16553380 [kcal/mol]     130.39659344 [kJ/mol]
      Exch10                       45.53030252 [mEh]      28.57069618 [kcal/mol]     119.53979280 [kJ/mol]
      Exch10(S^2)                  45.31035505 [mEh]      28.43267706 [kcal/mol]     118.96232081 [kJ/mol]
      Exch11(S^2)                  -0.20591082 [mEh]      -0.12921099 [kcal/mol]      -0.54061879 [kJ/mol]
      Exch12(S^2)                   4.34104780 [mEh]       2.72404862 [kcal/mol]      11.39741943 [kJ/mol]

    Induction                     -25.87447972 [mEh]     -16.23648115 [kcal/mol]     -67.93343713 [kJ/mol]
      Ind20,r                     -53.48944346 [mEh]     -33.56513252 [kcal/mol]    -140.43651446 [kJ/mol]
      Ind22                        -8.71707912 [mEh]      -5.47004973 [kcal/mol]     -22.88668808 [kJ/mol]
      Exch-Ind20,r                 32.43203185 [mEh]      20.35140724 [kcal/mol]      85.15028790 [kJ/mol]
      Exch-Ind22                    5.28539034 [mEh]       3.31663251 [kcal/mol]      13.87679042 [kJ/mol]
      delta HF,r (2)               -1.38537933 [mEh]      -0.86933865 [kcal/mol]      -3.63731292 [kJ/mol]

    Dispersion                    -10.10758013 [mEh]      -6.34260229 [kcal/mol]     -26.53744798 [kJ/mol]
      Disp20                      -12.14726873 [mEh]      -7.62252621 [kcal/mol]     -31.89264966 [kJ/mol]
      Disp21                        1.71130662 [mEh]       1.07386111 [kcal/mol]       4.49303490 [kJ/mol]
      Disp22 (SDQ)                 -0.12196243 [mEh]      -0.07653258 [kcal/mol]      -0.32021231 [kJ/mol]
      Disp22 (T)                   -1.22282417 [mEh]      -0.76733375 [kcal/mol]      -3.21052441 [kJ/mol]
      Est. Disp22 (T)              -1.33014276 [mEh]      -0.83467718 [kcal/mol]      -3.49228933 [kJ/mol]
      Exch-Disp20                   1.78048717 [mEh]       1.11727257 [kcal/mol]       4.67466842 [kJ/mol]

  Total HF                        -82.29620213 [mEh]     -51.64164649 [kcal/mol]    -216.06864893 [kJ/mol]
  Total SAPT0                     -92.66298369 [mEh]     -58.14690014 [kcal/mol]    -243.28663017 [kJ/mol]
  Total SAPT2                     -87.23630051 [mEh]     -54.74160503 [kcal/mol]    -229.03887543 [kJ/mol]
  Total SAPT2+                    -86.97709908 [mEh]     -54.57895367 [kcal/mol]    -228.35834217 [kJ/mol]

  Special recipe for scaled SAPT0 (see Manual):
    Electrostatics sSAPT0        -105.38371372 [mEh]     -66.12927874 [kcal/mol]    -276.68490225 [kJ/mol]
    Exchange sSAPT0                45.53030252 [mEh]      28.57069618 [kcal/mol]     119.53979280 [kJ/mol]
    Induction sSAPT0              -21.96819569 [mEh]     -13.78525092 [kcal/mol]     -57.67748985 [kJ/mol]
    Dispersion sSAPT0             -10.34072674 [mEh]      -6.48890400 [kcal/mol]     -27.14957432 [kJ/mol]
  Total sSAPT0                    -92.16233363 [mEh]     -57.83273748 [kcal/mol]    -241.97217361 [kJ/mol]
  --------------------------------------------------------------------------------------------------------

*** Psi4 exiting successfully. Buy a developer a beer!
