                               Psi4 1.9 release

  ==> Input File <==

--------------------------------------------------------------------------
MEMORY 60 GB

molecule dimer {
1 1
K      0.000000     0.000000     0.000000
--
0 1
O      0.943634     1.540384    -2.239203
H      1.835162     1.914466    -2.211791
H      0.256757     2.195615    -2.041790
O     -1.920742    -0.633797    -1.813826
H     -2.580219    -1.072039    -1.329826
H     -2.116309     0.283541    -1.612310
O     -1.787723     1.870031     1.131142
H     -2.161469     2.114690     0.289051
H     -1.202138     2.601312     1.399681
O      0.489597    -2.771440    -0.697134
H      1.059577    -2.807431    -1.496358
H      0.870276    -3.282004     0.035325

units ang
no_reorient
no_com
symmetry c1
}

set {
basis        aug-cc-pVTZ
scf_type     df
}

energy("sapt2+")
--------------------------------------------------------------------------

  //              Dimer HF             //
    Molecular point group: c1
  Charge       = 1
  Multiplicity = 1
  Basis Set: AUG-CC-PVTZ
    Blend: AUG-CC-PVTZ
  Basis Set: (AUG-CC-PVTZ AUX)
    Blend: AUG-CC-PVTZ-JKFIT + DEF2-UNIVERSAL-JKFIT
  @DF-RHF Final Energy:  -903.30247018707826
    Total Energy =                       -903.3024701870782565
 Dipole X            :         42.2471887          -42.0279531            0.2192356
 Dipole Y            :         -2.5402428            3.7597500            1.2195072
 Dipole Z            :         67.7639688          -67.8793139           -0.1153451
 Magnitude           :                                                    1.2444141
  //            Monomer A HF           //
    Molecular point group: c1
  Multiplicity = 1
  Basis Set: AUG-CC-PVTZ
    Blend: AUG-CC-PVTZ
  Basis Set: (AUG-CC-PVTZ AUX)
    Blend: AUG-CC-PVTZ-JKFIT + DEF2-UNIVERSAL-JKFIT
  @DF-RHF Final Energy:  -599.01751500358978
    Total Energy =                       -599.0175150035897786
  //            Monomer B HF           //
    Molecular point group: c1

    Geometry (in Angstrom), charge = 0, multiplicity = 1:

       Center              X                  Y                   Z               Mass
    ------------   -----------------  -----------------  -----------------  -----------------
      Gh(K)           0.000000000000     0.000000000000     0.000000000000    38.963706486400
         O            0.943634000000     1.540384000000    -2.239203000000    15.994914619570
         H            1.835162000000     1.914466000000    -2.211791000000     1.007825032230
         H            0.256757000000     2.195615000000    -2.041790000000     1.007825032230
         O           -1.920742000000    -0.633797000000    -1.813826000000    15.994914619570
         H           -2.580219000000    -1.072039000000    -1.329826000000     1.007825032230
         H           -2.116309000000     0.283541000000    -1.612310000000     1.007825032230
         O           -1.787723000000     1.870031000000     1.131142000000    15.994914619570
         H           -2.161469000000     2.114690000000     0.289051000000     1.007825032230
         H           -1.202138000000     2.601312000000     1.399681000000     1.007825032230
         O            0.489597000000    -2.771440000000    -0.697134000000    15.994914619570
         H            1.059577000000    -2.807431000000    -1.496358000000     1.007825032230
         H            0.870276000000    -3.282004000000     0.035325000000     1.007825032230

  Charge       = 0
  Multiplicity = 1
  Basis Set: AUG-CC-PVTZ
    Blend: AUG-CC-PVTZ
  Basis Set: (AUG-CC-PVTZ AUX)
    Blend: AUG-CC-PVTZ-JKFIT + DEF2-UNIVERSAL-JKFIT

    Orbital Energies [Eh]
    ---------------------

    Doubly Occupied:

       1A    -20.573223     2A    -20.560975     3A    -20.545503
       4A    -20.543107     5A     -1.354720     6A     -1.340349
       7A     -1.337940     8A     -1.317397     9A     -0.724819
      10A     -0.722519    11A     -0.697995    12A     -0.696029
      13A     -0.584707    14A     -0.570561    15A     -0.560975
      16A     -0.544824    17A     -0.514843    18A     -0.501970
      19A     -0.488229    20A     -0.484357

  @DF-RHF Final Energy:  -304.22750688619868

   => Energetics <=

    Nuclear Repulsion Energy =            112.2148836138895831
    One-Electron Energy =                -643.5546907500215639
    Two-Electron Energy =                 227.1123002499332983
    Total Energy =                       -304.2275068861986824
 Dipole X            :         42.4290727          -42.0279531            0.4011196
 Dipole Y            :         -2.5243037            3.7597500            1.2354463
 Dipole Z            :         68.0913914          -67.8793139            0.2120775
 Magnitude           :                                                    1.3161312

    SAPT Results
  --------------------------------------------------------------------------------------------------------
    Electrostatics                -66.63256097 [mEh]     -41.81256327 [kcal/mol]    -174.94376472 [kJ/mol]
      Elst10,r                    -66.44053462 [mEh]     -41.69206492 [kcal/mol]    -174.43959962 [kJ/mol]
      Elst12,r                     -0.19202634 [mEh]      -0.12049835 [kcal/mol]      -0.50416510 [kJ/mol]

    Exchange                       31.21470294 [mEh]      19.58752182 [kcal/mol]      81.95419128 [kJ/mol]
      Exch10                       26.97658017 [mEh]      16.92805963 [kcal/mol]      70.82700148 [kJ/mol]
      Exch10(S^2)                  26.90645193 [mEh]      16.88405349 [kcal/mol]      70.64287981 [kJ/mol]
      Exch11(S^2)                  -0.15088058 [mEh]      -0.09467899 [kcal/mol]      -0.39613691 [kJ/mol]
      Exch12(S^2)                   4.38900335 [mEh]       2.75414118 [kcal/mol]      11.52332670 [kJ/mol]

    Induction                     -21.63531626 [mEh]     -13.57636592 [kcal/mol]     -56.80351502 [kJ/mol]
      Ind20,r                     -40.91707079 [mEh]     -25.67584956 [kcal/mol]    -107.42775456 [kJ/mol]
      Ind22                        -8.69898021 [mEh]      -5.45869249 [kcal/mol]     -22.83916938 [kJ/mol]
      Exch-Ind20,r                 23.74412240 [mEh]      14.89966175 [kcal/mol]      62.34018478 [kJ/mol]
      Exch-Ind22                    5.04800678 [mEh]       3.16767208 [kcal/mol]      13.25353998 [kJ/mol]
      delta HF,r (2)               -0.81139445 [mEh]      -0.50915770 [kcal/mol]      -2.13031583 [kJ/mol]

    Dispersion                     -7.38036075 [mEh]      -4.63124629 [kcal/mol]     -19.37713449 [kJ/mol]
      Disp20                       -8.38367407 [mEh]      -5.26083490 [kcal/mol]     -22.01133323 [kJ/mol]
      Disp21                        1.01346317 [mEh]       0.63595774 [kcal/mol]       2.66084720 [kJ/mol]
      Disp22 (SDQ)                 -0.13274782 [mEh]      -0.08330052 [kcal/mol]      -0.34852936 [kJ/mol]
      Disp22 (T)                   -0.89893087 [mEh]      -0.56408764 [kcal/mol]      -2.36014268 [kJ/mol]
      Est. Disp22 (T)              -0.97445163 [mEh]      -0.61147763 [kcal/mol]      -2.55842240 [kJ/mol]
      Exch-Disp20                   1.09704959 [mEh]       0.68840901 [kcal/mol]       2.88030330 [kJ/mol]

  Total HF                        -57.44829729 [mEh]     -36.04935080 [kcal/mol]    -150.83048375 [kJ/mol]
  Total SAPT0                     -64.73492177 [mEh]     -40.62177669 [kcal/mol]    -169.96151368 [kJ/mol]
  Total SAPT2                     -64.33979877 [mEh]     -40.37383327 [kcal/mol]    -168.92411839 [kJ/mol]
  Total SAPT2+                    -64.43353504 [mEh]     -40.43265367 [kcal/mol]    -169.17022295 [kJ/mol]

  Special recipe for scaled SAPT0 (see Manual):
    Electrostatics sSAPT0         -66.44053462 [mEh]     -41.69206492 [kcal/mol]    -174.43959962 [kJ/mol]
    Exchange sSAPT0                26.97658017 [mEh]      16.92805963 [kcal/mol]      70.82700148 [kJ/mol]
    Induction sSAPT0              -17.79820043 [mEh]     -11.16853939 [kcal/mol]     -46.72916879 [kJ/mol]
    Dispersion sSAPT0              -7.27802414 [mEh]      -4.56702910 [kcal/mol]     -19.10844975 [kJ/mol]
  Total sSAPT0                    -64.54017902 [mEh]     -40.49957378 [kcal/mol]    -169.45021668 [kJ/mol]
  --------------------------------------------------------------------------------------------------------

*** Psi4 exiting successfully. Buy a developer a beer!
