                               Psi4 1.9 release

  ==> Input File <==

--------------------------------------------------------------------------
MEMORY 60 GB

molecule dimer {
1 1
K      0.000000     0.000000     0.000000
--
0 1
O     -0.410929    -0.700784    -2.509863
H     -1.217513    -1.219559    -2.665649
H     -0.164264    -0.548002    -3.391802
O      0.364162     2.737792     0.615970
H     -0.368150     3.382202     0.757426
H      0.419133     2.301238     1.419304
O     -1.302168    -1.379093     2.269078
H     -1.734333    -1.173294     3.111865
H     -1.340808    -2.327373     2.231571
O      2.554230    -0.782247     0.698580
H      2.890378    -1.647175     0.845380
H      3.241882    -0.204019     0.218312

units ang
no_reorient
no_com
symmetry c1
}

set {
basis        aug-cc-pVTZ
scf_type     df
}

energy("sapt2+")
--------------------------------------------------------------------------

  //              Dimer HF             //
    Molecular point group: c1
  Charge       = 1
  Multiplicity = 1
  Basis Set: AUG-CC-PVTZ
    Blend: AUG-CC-PVTZ
  Basis Set: (AUG-CC-PVTZ AUX)
    Blend: AUG-CC-PVTZ-JKFIT + DEF2-UNIVERSAL-JKFIT
  @DF-RHF Final Energy:  -903.32467300559983
    Total Energy =                       -903.3246730055998341
 Dipole X            :        -21.8070298           21.4837011           -0.3233288
 Dipole Y            :          3.7513230           -4.5932401           -0.8419172
 Dipole Z            :        -20.7472328           21.0071915            0.2599587
 Magnitude           :                                                    0.9385865
  //            Monomer A HF           //
    Molecular point group: c1
  Multiplicity = 1
  Basis Set: AUG-CC-PVTZ
    Blend: AUG-CC-PVTZ
  Basis Set: (AUG-CC-PVTZ AUX)
    Blend: AUG-CC-PVTZ-JKFIT + DEF2-UNIVERSAL-JKFIT
  @DF-RHF Final Energy:  -599.01751459199045
    Total Energy =                       -599.0175145919903343
  //            Monomer B HF           //
    Molecular point group: c1

    Geometry (in Angstrom), charge = 0, multiplicity = 1:

       Center              X                  Y                   Z               Mass
    ------------   -----------------  -----------------  -----------------  -----------------
      Gh(K)           0.000000000000     0.000000000000     0.000000000000    38.963706486400
         O           -0.410929000000    -0.700784000000    -2.509863000000    15.994914619570
         H           -1.217513000000    -1.219559000000    -2.665649000000     1.007825032230
         H           -0.164264000000    -0.548002000000    -3.391802000000     1.007825032230
         O            0.364162000000     2.737792000000     0.615970000000    15.994914619570
         H           -0.368150000000     3.382202000000     0.757426000000     1.007825032230
         H            0.419133000000     2.301238000000     1.419304000000     1.007825032230
         O           -1.302168000000    -1.379093000000     2.269078000000    15.994914619570
         H           -1.734333000000    -1.173294000000     3.111865000000     1.007825032230
         H           -1.340808000000    -2.327373000000     2.231571000000     1.007825032230
         O            2.554230000000    -0.782247000000     0.698580000000    15.994914619570
         H            2.890378000000    -1.647175000000     0.845380000000     1.007825032230
         H            3.241882000000    -0.204019000000     0.218312000000     1.007825032230

  Charge       = 0
  Multiplicity = 1
  Basis Set: AUG-CC-PVTZ
    Blend: AUG-CC-PVTZ
  Basis Set: (AUG-CC-PVTZ AUX)
    Blend: AUG-CC-PVTZ-JKFIT + DEF2-UNIVERSAL-JKFIT

    Orbital Energies [Eh]
    ---------------------

    Doubly Occupied:

       1A    -20.557812     2A    -20.550680     3A    -20.547403
       4A    -20.542936     5A     -1.344492     6A     -1.343031
       7A     -1.335492     8A     -1.319469     9A     -0.703719
      10A     -0.697302    11A     -0.695716    12A     -0.693128
      13A     -0.578077    14A     -0.575507    15A     -0.564739
      16A     -0.546980    17A     -0.499796    18A     -0.494670
      19A     -0.487786    20A     -0.485965

  @DF-RHF Final Energy:  -304.22744105581916

   => Energetics <=

    Nuclear Repulsion Energy =            105.0489402026943964
    One-Electron Energy =                -629.4233618160242258
    Two-Electron Energy =                 220.1469805575106307
    Total Energy =                       -304.2274410558191562
 Dipole X            :        -21.9220702           21.4837011           -0.4383691
 Dipole Y            :          3.7779859           -4.5932401           -0.8152542
 Dipole Z            :        -20.7587059           21.0071915            0.2484856
 Magnitude           :                                                    0.9584112

    SAPT Results
  --------------------------------------------------------------------------------------------------------
    Electrostatics                -83.16638562 [mEh]     -52.18769488 [kcal/mol]    -218.35331536 [kJ/mol]
      Elst10,r                    -87.10459380 [mEh]     -54.65895782 [kcal/mol]    -228.69307951 [kJ/mol]
      Elst12,r                      3.93820818 [mEh]       2.47126294 [kcal/mol]      10.33976414 [kJ/mol]

    Exchange                       28.60804663 [mEh]      17.95182029 [kcal/mol]      75.11041609 [kJ/mol]
      Exch10                       25.64196401 [mEh]      16.09057534 [kcal/mol]      67.32296722 [kJ/mol]
      Exch10(S^2)                  25.60737123 [mEh]      16.06886804 [kcal/mol]      67.23214390 [kJ/mol]
      Exch11(S^2)                  -0.08476533 [mEh]      -0.05319105 [kcal/mol]      -0.22255135 [kJ/mol]
      Exch12(S^2)                   3.05084796 [mEh]       1.91443600 [kcal/mol]       8.01000022 [kJ/mol]

    Induction                     -21.19034497 [mEh]     -13.29714222 [kcal/mol]     -55.63524305 [kJ/mol]
      Ind20,r                     -36.47741697 [mEh]     -22.88992473 [kcal/mol]     -95.77144506 [kJ/mol]
      Ind22                        -6.08902811 [mEh]      -3.82092282 [kcal/mol]     -15.98674110 [kJ/mol]
      Exch-Ind20,r                 18.89107604 [mEh]      11.85432919 [kcal/mol]      49.59851332 [kJ/mol]
      Exch-Ind22                    3.15341114 [mEh]       1.97879537 [kcal/mol]       8.27927981 [kJ/mol]
      delta HF,r (2)               -0.66838707 [mEh]      -0.41941922 [kcal/mol]      -1.75485002 [kJ/mol]

    Dispersion                     -7.24683273 [mEh]      -4.54745619 [kcal/mol]     -19.02655670 [kJ/mol]
      Disp20                       -8.35682296 [mEh]      -5.24398558 [kcal/mol]     -21.94083567 [kJ/mol]
      Disp21                        1.09382259 [mEh]       0.68638404 [kcal/mol]       2.87183081 [kJ/mol]
      Disp22 (SDQ)                 -0.07279356 [mEh]      -0.04567865 [kcal/mol]      -0.19111946 [kJ/mol]
      Disp22 (T)                   -0.84668533 [mEh]      -0.53130306 [kcal/mol]      -2.22297202 [kJ/mol]
      Est. Disp22 (T)              -0.92079193 [mEh]      -0.57780566 [kcal/mol]      -2.41753887 [kJ/mol]
      Exch-Disp20                   1.00975314 [mEh]       0.63362966 [kcal/mol]       2.65110649 [kJ/mol]

  Total HF                        -79.71735779 [mEh]     -50.02339724 [kcal/mol]    -209.29789404 [kJ/mol]
  Total SAPT0                     -87.06442762 [mEh]     -54.63375316 [kcal/mol]    -228.58762322 [kJ/mol]
  Total SAPT2                     -83.09575378 [mEh]     -52.14337273 [kcal/mol]    -218.16787150 [kJ/mol]
  Total SAPT2+                    -82.99551668 [mEh]     -52.08047300 [kcal/mol]    -217.90469903 [kJ/mol]

  Special recipe for scaled SAPT0 (see Manual):
    Electrostatics sSAPT0         -87.10459380 [mEh]     -54.65895782 [kcal/mol]    -228.69307951 [kJ/mol]
    Exchange sSAPT0                25.64196401 [mEh]      16.09057534 [kcal/mol]      67.32296722 [kJ/mol]
    Induction sSAPT0              -18.17806515 [mEh]     -11.40690810 [kcal/mol]     -47.72650348 [kJ/mol]
    Dispersion sSAPT0              -7.34297210 [mEh]      -4.60778456 [kcal/mol]     -19.27897058 [kJ/mol]
  Total sSAPT0                    -86.98366704 [mEh]     -54.58307513 [kcal/mol]    -228.37558634 [kJ/mol]
  --------------------------------------------------------------------------------------------------------

*** Psi4 exiting successfully. Buy a developer a beer!
