                               Psi4 1.9 release

  ==> Input File <==

--------------------------------------------------------------------------
MEMORY 60 GB

molecule dimer {
1 1
K      0.000000     0.000000     0.000000
--
0 1
O      0.577144     2.541320     0.000600
H      1.213804     2.744613     0.747683
H     -0.094201     3.104652     0.284161
O     -2.116734    -0.221233    -1.605170
H     -2.311595     0.706106    -1.826664
H     -1.611838    -0.483958    -2.409399
O     -0.049892    -1.890371     2.061110
H      0.247910    -2.821836     2.137168
H     -0.958496    -1.910780     2.339261
O      1.916245     0.015119    -1.956164
H      2.821662     0.235522    -1.746799
H      1.929350    -0.944808    -2.052363

units ang
no_reorient
no_com
symmetry c1
}

set {
basis        aug-cc-pVTZ
scf_type     df
}

energy("sapt2+")
--------------------------------------------------------------------------

  //              Dimer HF             //
    Molecular point group: c1
  Charge       = 1
  Multiplicity = 1
  Basis Set: AUG-CC-PVTZ
    Blend: AUG-CC-PVTZ
  Basis Set: (AUG-CC-PVTZ AUX)
    Blend: AUG-CC-PVTZ-JKFIT + DEF2-UNIVERSAL-JKFIT
  @DF-RHF Final Energy:  -903.31575415686063
    Total Energy =                       -903.3157541568606348
 Dipole X            :         -6.8531074            7.2767684            0.4236610
 Dipole Y            :         -7.9996469            7.9145340           -0.0851130
 Dipole Z            :         27.6243807          -27.4462764            0.1781042
 Magnitude           :                                                    0.4673906
  //            Monomer A HF           //
    Molecular point group: c1
  Multiplicity = 1
  Basis Set: AUG-CC-PVTZ
    Blend: AUG-CC-PVTZ
  Basis Set: (AUG-CC-PVTZ AUX)
    Blend: AUG-CC-PVTZ-JKFIT + DEF2-UNIVERSAL-JKFIT
  @DF-RHF Final Energy:  -599.01751529346711
    Total Energy =                       -599.0175152934671132
  //            Monomer B HF           //
    Molecular point group: c1

    Geometry (in Angstrom), charge = 0, multiplicity = 1:

       Center              X                  Y                   Z               Mass
    ------------   -----------------  -----------------  -----------------  -----------------
      Gh(K)           0.000000000000     0.000000000000     0.000000000000    38.963706486400
         O            0.577144000000     2.541320000000     0.000600000000    15.994914619570
         H            1.213804000000     2.744613000000     0.747683000000     1.007825032230
         H           -0.094201000000     3.104652000000     0.284161000000     1.007825032230
         O           -2.116734000000    -0.221233000000    -1.605170000000    15.994914619570
         H           -2.311595000000     0.706106000000    -1.826664000000     1.007825032230
         H           -1.611838000000    -0.483958000000    -2.409399000000     1.007825032230
         O           -0.049892000000    -1.890371000000     2.061110000000    15.994914619570
         H            0.247910000000    -2.821836000000     2.137168000000     1.007825032230
         H           -0.958496000000    -1.910780000000     2.339261000000     1.007825032230
         O            1.916245000000     0.015119000000    -1.956164000000    15.994914619570
         H            2.821662000000     0.235522000000    -1.746799000000     1.007825032230
         H            1.929350000000    -0.944808000000    -2.052363000000     1.007825032230

  Charge       = 0
  Multiplicity = 1
  Basis Set: AUG-CC-PVTZ
    Blend: AUG-CC-PVTZ
  Basis Set: (AUG-CC-PVTZ AUX)
    Blend: AUG-CC-PVTZ-JKFIT + DEF2-UNIVERSAL-JKFIT

    Orbital Energies [Eh]
    ---------------------

    Doubly Occupied:

       1A    -20.556289     2A    -20.553607     3A    -20.551321
       4A    -20.550248     5A     -1.341665     6A     -1.337153
       7A     -1.335016     8A     -1.324250     9A     -0.700542
      10A     -0.697577    11A     -0.682241    12A     -0.675857
      13A     -0.581864    14A     -0.570740    15A     -0.568965
      16A     -0.566036    17A     -0.497159    18A     -0.495058
      19A     -0.491734    20A     -0.487968

  @DF-RHF Final Energy:  -304.22762877632982

   => Energetics <=

    Nuclear Repulsion Energy =            108.6396300757923825
    One-Electron Energy =                -636.6039247140140560
    Two-Electron Energy =                 223.7366658618917938
    Total Energy =                       -304.2276287763298797
 Dipole X            :         -6.9053103            7.2767684            0.3714581
 Dipole Y            :         -8.0814038            7.9145340           -0.1668699
 Dipole Z            :         27.7707338          -27.4462764            0.3244574
 Magnitude           :                                                    0.5206720

    SAPT Results
  --------------------------------------------------------------------------------------------------------
    Electrostatics                -89.23354366 [mEh]     -55.99489403 [kcal/mol]    -234.28263660 [kJ/mol]
      Elst10,r                    -90.65035860 [mEh]     -56.88395882 [kcal/mol]    -238.00248372 [kJ/mol]
      Elst12,r                      1.41681494 [mEh]       0.88906480 [kcal/mol]       3.71984712 [kJ/mol]

    Exchange                       45.23180691 [mEh]      28.38338735 [kcal/mol]     118.75609269 [kJ/mol]
      Exch10                       40.29495597 [mEh]      25.28546662 [kcal/mol]     105.79439233 [kJ/mol]
      Exch10(S^2)                  40.19194619 [mEh]      25.22082701 [kcal/mol]     105.52394020 [kJ/mol]
      Exch11(S^2)                  -0.23089510 [mEh]      -0.14488886 [kcal/mol]      -0.60621499 [kJ/mol]
      Exch12(S^2)                   5.16774604 [mEh]       3.24280960 [kcal/mol]      13.56791535 [kJ/mol]

    Induction                     -24.03725788 [mEh]     -15.08360705 [kcal/mol]     -63.10981188 [kJ/mol]
      Ind20,r                     -52.89122368 [mEh]     -33.18974394 [kcal/mol]    -138.86588863 [kJ/mol]
      Ind22                       -10.29729313 [mEh]      -6.46164900 [kcal/mol]     -27.03553940 [kJ/mol]
      Exch-Ind20,r                 33.46233729 [mEh]      20.99793367 [kcal/mol]      87.85535446 [kJ/mol]
      Exch-Ind22                    6.51471969 [mEh]       4.08804832 [kcal/mol]      17.10439418 [kJ/mol]
      delta HF,r (2)               -0.82579805 [mEh]      -0.51819610 [kcal/mol]      -2.16813249 [kJ/mol]

    Dispersion                     -9.07189637 [mEh]      -5.69270092 [kcal/mol]     -23.81826064 [kJ/mol]
      Disp20                      -10.70075872 [mEh]      -6.71482747 [kcal/mol]     -28.09483814 [kJ/mol]
      Disp21                        1.33696139 [mEh]       0.83895594 [kcal/mol]       3.51019164 [kJ/mol]
      Disp22 (SDQ)                 -0.12356647 [mEh]      -0.07753913 [kcal/mol]      -0.32442371 [kJ/mol]
      Disp22 (T)                   -1.10649965 [mEh]      -0.69433901 [kcal/mol]      -2.90511443 [kJ/mol]
      Est. Disp22 (T)              -1.20315419 [mEh]      -0.75499065 [kcal/mol]      -3.15888089 [kJ/mol]
      Exch-Disp20                   1.61862162 [mEh]       1.01570040 [kcal/mol]       4.24969047 [kJ/mol]

  Total HF                        -70.61008706 [mEh]     -44.30849858 [kcal/mol]    -185.38675805 [kJ/mol]
  Total SAPT0                     -79.69222417 [mEh]     -50.00762565 [kcal/mol]    -209.23190572 [kJ/mol]
  Total SAPT2                     -77.12113173 [mEh]     -48.39424079 [kcal/mol]    -202.48150347 [kJ/mol]
  Total SAPT2+                    -77.11089100 [mEh]     -48.38781464 [kcal/mol]    -202.45461643 [kJ/mol]

  Special recipe for scaled SAPT0 (see Manual):
    Electrostatics sSAPT0         -90.65035860 [mEh]     -56.88395882 [kcal/mol]    -238.00248372 [kJ/mol]
    Exchange sSAPT0                40.29495597 [mEh]      25.28546662 [kcal/mol]     105.79439233 [kJ/mol]
    Induction sSAPT0              -19.99673800 [mEh]     -12.54814254 [kcal/mol]     -52.50142838 [kJ/mol]
    Dispersion sSAPT0              -9.06965986 [mEh]      -5.69129749 [kcal/mol]     -23.81238868 [kJ/mol]
  Total sSAPT0                    -79.42180049 [mEh]     -49.83793223 [kcal/mol]    -208.52190845 [kJ/mol]
  --------------------------------------------------------------------------------------------------------

*** Psi4 exiting successfully. Buy a developer a beer!
