                               Psi4 1.9 release

  ==> Input File <==

--------------------------------------------------------------------------
MEMORY 60 GB

molecule dimer {
1 1
K      0.000000     0.000000     0.000000
--
0 1
O     -1.748582    -1.917623     0.824916
H     -1.927657    -2.525574     0.033501
H     -1.050096    -2.347738     1.319853
O     -1.621019    -0.026661    -2.495029
H     -2.157829     0.783290    -2.142273
H     -0.938955     0.298904    -3.093444
O      1.590594     2.164731    -0.894823
H      1.235565     3.044904    -0.640630
H      1.783507     2.237495    -1.824659
O     -1.616151     1.949068     0.718448
H     -1.919618     2.437775    -0.050766
H     -2.417592     1.668498     1.285757
O      1.392847    -1.450900    -1.792945
H      2.296831    -1.347027    -1.608727
H      1.207511    -1.120090    -2.693635

units ang
no_reorient
no_com
symmetry c1
}

set {
basis        aug-cc-pVTZ
scf_type     df
}

energy("sapt2+")
--------------------------------------------------------------------------

  //              Dimer HF             //
    Molecular point group: c1
  Charge       = 1
  Multiplicity = 1
  Basis Set: AUG-CC-PVTZ
    Blend: AUG-CC-PVTZ
  Basis Set: (AUG-CC-PVTZ AUX)
    Blend: AUG-CC-PVTZ-JKFIT + DEF2-UNIVERSAL-JKFIT
  @DF-RHF Final Energy:  -979.37110437243041
    Total Energy =                       -979.3711043724304091
 Dipole X            :         37.5316045          -37.6184397           -0.0868352
 Dipole Y            :        -15.6292662           16.7795529            1.1502867
 Dipole Z            :         71.1940220          -72.8120679           -1.6180459
 Magnitude           :                                                    1.9871518
  //            Monomer A HF           //
    Molecular point group: c1
  Multiplicity = 1
  Basis Set: AUG-CC-PVTZ
    Blend: AUG-CC-PVTZ
  Basis Set: (AUG-CC-PVTZ AUX)
    Blend: AUG-CC-PVTZ-JKFIT + DEF2-UNIVERSAL-JKFIT
  @DF-RHF Final Energy:  -599.01751622348456
    Total Energy =                       -599.0175162234846766
  //            Monomer B HF           //
    Molecular point group: c1

    Geometry (in Angstrom), charge = 0, multiplicity = 1:

       Center              X                  Y                   Z               Mass
    ------------   -----------------  -----------------  -----------------  -----------------
      Gh(K)           0.000000000000     0.000000000000     0.000000000000    38.963706486400
         O           -1.748582000000    -1.917623000000     0.824916000000    15.994914619570
         H           -1.927657000000    -2.525574000000     0.033501000000     1.007825032230
         H           -1.050096000000    -2.347738000000     1.319853000000     1.007825032230
         O           -1.621019000000    -0.026661000000    -2.495029000000    15.994914619570
         H           -2.157829000000     0.783290000000    -2.142273000000     1.007825032230
         H           -0.938955000000     0.298904000000    -3.093444000000     1.007825032230
         O            1.590594000000     2.164731000000    -0.894823000000    15.994914619570
         H            1.235565000000     3.044904000000    -0.640630000000     1.007825032230
         H            1.783507000000     2.237495000000    -1.824659000000     1.007825032230
         O           -1.616151000000     1.949068000000     0.718448000000    15.994914619570
         H           -1.919618000000     2.437775000000    -0.050766000000     1.007825032230
         H           -2.417592000000     1.668498000000     1.285757000000     1.007825032230
         O            1.392847000000    -1.450900000000    -1.792945000000    15.994914619570
         H            2.296831000000    -1.347027000000    -1.608727000000     1.007825032230
         H            1.207511000000    -1.120090000000    -2.693635000000     1.007825032230

  Charge       = 0
  Multiplicity = 1
  Basis Set: AUG-CC-PVTZ
    Blend: AUG-CC-PVTZ
  Basis Set: (AUG-CC-PVTZ AUX)
    Blend: AUG-CC-PVTZ-JKFIT + DEF2-UNIVERSAL-JKFIT

    Orbital Energies [Eh]
    ---------------------

    Doubly Occupied:

       1A    -20.561947     2A    -20.560811     3A    -20.557593
       4A    -20.548920     5A    -20.541677     6A     -1.340365
       7A     -1.337840     8A     -1.322131     9A     -1.321176
      10A     -1.309637    11A     -0.715139    12A     -0.705264
      13A     -0.697177    14A     -0.691906    15A     -0.674381
      16A     -0.572856    17A     -0.561477    18A     -0.557824
      19A     -0.554479    20A     -0.548861    21A     -0.502626
      22A     -0.497149    23A     -0.492813    24A     -0.489324
      25A     -0.477538

  @DF-RHF Final Energy:  -380.27107970084438

   => Energetics <=

    Nuclear Repulsion Energy =            173.6979797904165537
    One-Electron Energy =                -871.6562866437607227
    Two-Electron Energy =                 317.6872271524998155
    Total Energy =                       -380.2710797008443819
 Dipole X            :         37.7489934          -37.6184397            0.1305536
 Dipole Y            :        -15.7191922           16.7795529            1.0603607
 Dipole Z            :         71.5327736          -72.8120679           -1.2792943
 Magnitude           :                                                    1.6667342

    SAPT Results
  --------------------------------------------------------------------------------------------------------
    Electrostatics                -98.06924660 [mEh]     -61.53938133 [kcal/mol]    -257.48077148 [kJ/mol]
      Elst10,r                    -99.90243234 [mEh]     -62.68972275 [kcal/mol]    -262.29379998 [kJ/mol]
      Elst12,r                      1.83318574 [mEh]       1.15034142 [kcal/mol]       4.81302850 [kJ/mol]

    Exchange                       45.43620687 [mEh]      28.51165026 [kcal/mol]     119.29274469 [kJ/mol]
      Exch10                       40.26168290 [mEh]      25.26458745 [kcal/mol]     105.70703389 [kJ/mol]
      Exch10(S^2)                  40.14307612 [mEh]      25.19016057 [kcal/mol]     105.39563184 [kJ/mol]
      Exch11(S^2)                  -0.32122467 [mEh]      -0.20157152 [kcal/mol]      -0.84337526 [kJ/mol]
      Exch12(S^2)                   5.49574864 [mEh]       3.44863434 [kcal/mol]      14.42908606 [kJ/mol]

    Induction                     -27.25239496 [mEh]     -17.10113602 [kcal/mol]     -71.55115310 [kJ/mol]
      Ind20,r                     -54.21126370 [mEh]     -34.01808156 [kcal/mol]    -142.33165325 [kJ/mol]
      Ind22                       -10.90302101 [mEh]      -6.84174898 [kcal/mol]     -28.62587772 [kJ/mol]
      Exch-Ind20,r                 32.40997330 [mEh]      20.33756529 [kcal/mol]      85.09237316 [kJ/mol]
      Exch-Ind22                    6.51832471 [mEh]       4.09031051 [kcal/mol]      17.11385917 [kJ/mol]
      delta HF,r (2)               -1.06640825 [mEh]      -0.66918128 [kcal/mol]      -2.79985447 [kJ/mol]

    Dispersion                    -10.18384466 [mEh]      -6.39045900 [kcal/mol]     -26.73768047 [kJ/mol]
      Disp20                      -11.86448023 [mEh]      -7.44507375 [kcal/mol]     -31.15018856 [kJ/mol]
      Disp21                        1.53334697 [mEh]       0.96218975 [kcal/mol]       4.02580191 [kJ/mol]
      Disp22 (SDQ)                 -0.15542826 [mEh]      -0.09753270 [kcal/mol]      -0.40807684 [kJ/mol]
      Disp22 (T)                   -1.26944533 [mEh]      -0.79658897 [kcal/mol]      -3.33292827 [kJ/mol]
      Est. Disp22 (T)              -1.37460263 [mEh]      -0.86257618 [kcal/mol]      -3.60901872 [kJ/mol]
      Exch-Disp20                   1.67731950 [mEh]       1.05253388 [kcal/mol]       4.40380174 [kJ/mol]

  Total HF                        -82.50844810 [mEh]     -51.77483285 [kcal/mol]    -216.62590065 [kJ/mol]
  Total SAPT0                     -92.69560884 [mEh]     -58.16737272 [kcal/mol]    -243.37228747 [kJ/mol]
  Total SAPT2                     -90.07259543 [mEh]     -56.52140696 [kcal/mol]    -236.48556671 [kJ/mol]
  Total SAPT2+                    -90.06927935 [mEh]     -56.51932609 [kcal/mol]    -236.47686036 [kJ/mol]

  Special recipe for scaled SAPT0 (see Manual):
    Electrostatics sSAPT0         -99.90243234 [mEh]     -62.68972275 [kcal/mol]    -262.29379998 [kJ/mol]
    Exchange sSAPT0                40.26168290 [mEh]      25.26458745 [kcal/mol]     105.70703389 [kJ/mol]
    Induction sSAPT0              -22.57957341 [mEh]     -14.16889623 [kcal/mol]     -59.28266181 [kJ/mol]
    Dispersion sSAPT0             -10.17224933 [mEh]      -6.38318283 [kcal/mol]     -26.70723695 [kJ/mol]
  Total sSAPT0                    -92.39257219 [mEh]     -57.97721435 [kcal/mol]    -242.57666486 [kJ/mol]
  --------------------------------------------------------------------------------------------------------

*** Psi4 exiting successfully. Buy a developer a beer!
