                               Psi4 1.9 release

  ==> Input File <==

--------------------------------------------------------------------------
MEMORY 60 GB

molecule dimer {
1 1
K      0.000000     0.000000     0.000000
--
0 1
O     -1.080651     0.306429     2.551299
H     -1.823175     0.297793     3.180353
H     -0.354899     0.660309     3.103492
O      2.278387    -0.702459    -1.607685
H      2.138970    -0.719093    -2.593983
H      3.142648    -0.207233    -1.591648
O      0.117076     1.812209    -2.183024
H      0.976217     1.536841    -2.563700
H      0.141175     2.783659    -2.179207
O     -0.797458     2.800333     0.664685
H     -1.133208     2.542766     1.514255
H      0.012475     3.272720     0.925054
O      0.106479    -2.530132     1.323326
H      0.105693    -2.479833     2.282568
H      0.086604    -3.458505     1.108124

units ang
no_reorient
no_com
symmetry c1
}

set {
basis        aug-cc-pVTZ
scf_type     df
}

energy("sapt2+")
--------------------------------------------------------------------------

  //              Dimer HF             //
    Molecular point group: c1
  Charge       = 1
  Multiplicity = 1
  Basis Set: AUG-CC-PVTZ
    Blend: AUG-CC-PVTZ
  Basis Set: (AUG-CC-PVTZ AUX)
    Blend: AUG-CC-PVTZ-JKFIT + DEF2-UNIVERSAL-JKFIT
  @DF-RHF Final Energy:  -979.39178845179345
    Total Energy =                       -979.3917884517934453
 Dipole X            :        -14.3406192           15.6529114            1.3122922
 Dipole Y            :        -32.9470355           33.4868238            0.5397883
 Dipole Z            :        -16.0962662           17.3365667            1.2403005
 Magnitude           :                                                    1.8846293
  //            Monomer A HF           //
    Molecular point group: c1
  Multiplicity = 1
  Basis Set: AUG-CC-PVTZ
    Blend: AUG-CC-PVTZ
  Basis Set: (AUG-CC-PVTZ AUX)
    Blend: AUG-CC-PVTZ-JKFIT + DEF2-UNIVERSAL-JKFIT
  @DF-RHF Final Energy:  -599.01751474233151
    Total Energy =                       -599.0175147423315138
  //            Monomer B HF           //
    Molecular point group: c1

    Geometry (in Angstrom), charge = 0, multiplicity = 1:

       Center              X                  Y                   Z               Mass
    ------------   -----------------  -----------------  -----------------  -----------------
      Gh(K)           0.000000000000     0.000000000000     0.000000000000    38.963706486400
         O           -1.080651000000     0.306429000000     2.551299000000    15.994914619570
         H           -1.823175000000     0.297793000000     3.180353000000     1.007825032230
         H           -0.354899000000     0.660309000000     3.103492000000     1.007825032230
         O            2.278387000000    -0.702459000000    -1.607685000000    15.994914619570
         H            2.138970000000    -0.719093000000    -2.593983000000     1.007825032230
         H            3.142648000000    -0.207233000000    -1.591648000000     1.007825032230
         O            0.117076000000     1.812209000000    -2.183024000000    15.994914619570
         H            0.976217000000     1.536841000000    -2.563700000000     1.007825032230
         H            0.141175000000     2.783659000000    -2.179207000000     1.007825032230
         O           -0.797458000000     2.800333000000     0.664685000000    15.994914619570
         H           -1.133208000000     2.542766000000     1.514255000000     1.007825032230
         H            0.012475000000     3.272720000000     0.925054000000     1.007825032230
         O            0.106479000000    -2.530132000000     1.323326000000    15.994914619570
         H            0.105693000000    -2.479833000000     2.282568000000     1.007825032230
         H            0.086604000000    -3.458505000000     1.108124000000     1.007825032230

  Charge       = 0
  Multiplicity = 1
  Basis Set: AUG-CC-PVTZ
    Blend: AUG-CC-PVTZ
  Basis Set: (AUG-CC-PVTZ AUX)
    Blend: AUG-CC-PVTZ-JKFIT + DEF2-UNIVERSAL-JKFIT

    Orbital Energies [Eh]
    ---------------------

    Doubly Occupied:

       1A    -20.569666     2A    -20.565276     3A    -20.539555
       4A    -20.539541     5A    -20.539065     6A     -1.345194
       7A     -1.327312     8A     -1.325616     9A     -1.325396
      10A     -1.312700    11A     -0.700917    12A     -0.693920
      13A     -0.682393    14A     -0.678036    15A     -0.672382
      16A     -0.582361    17A     -0.575729    18A     -0.563802
      19A     -0.552658    20A     -0.546870    21A     -0.509430
      22A     -0.497965    23A     -0.482740    24A     -0.481643
      25A     -0.472786

  @DF-RHF Final Energy:  -380.27780502973405

   => Energetics <=

    Nuclear Repulsion Energy =            169.6321128392919491
    One-Electron Energy =                -863.6539223214879257
    Two-Electron Energy =                 313.7440044524619225
    Total Energy =                       -380.2778050297340542
 Dipole X            :        -14.4238441           15.6529114            1.2290673
 Dipole Y            :        -33.0885806           33.4868238            0.3982432
 Dipole Z            :        -16.1712213           17.3365667            1.1653453
 Magnitude           :                                                    1.7398948

    SAPT Results
  --------------------------------------------------------------------------------------------------------
    Electrostatics                -93.04861508 [mEh]     -58.38888748 [kcal/mol]    -244.29910523 [kJ/mol]
      Elst10,r                    -98.19473178 [mEh]     -61.61812447 [kcal/mol]    -257.81023278 [kJ/mol]
      Elst12,r                      5.14611670 [mEh]       3.22923698 [kcal/mol]      13.51112754 [kJ/mol]

    Exchange                       24.16225637 [mEh]      15.16204478 [kcal/mol]      63.43799535 [kJ/mol]
      Exch10                       21.38316093 [mEh]      13.41813606 [kcal/mol]      56.14148127 [kJ/mol]
      Exch10(S^2)                  21.34617974 [mEh]      13.39493001 [kcal/mol]      56.04438718 [kJ/mol]
      Exch11(S^2)                  -0.11564653 [mEh]      -0.07256929 [kcal/mol]      -0.30362993 [kJ/mol]
      Exch12(S^2)                   2.89474197 [mEh]       1.81647801 [kcal/mol]       7.60014401 [kJ/mol]

    Induction                     -22.96675252 [mEh]     -14.41185479 [kcal/mol]     -60.29920043 [kJ/mol]
      Ind20,r                     -34.21845534 [mEh]     -21.47240491 [kcal/mol]     -89.84054212 [kJ/mol]
      Ind22                        -5.95713027 [mEh]      -3.73815568 [kcal/mol]     -15.64044336 [kJ/mol]
      Exch-Ind20,r                 15.20747382 [mEh]       9.54283389 [kcal/mol]      39.92721701 [kJ/mol]
      Exch-Ind22                    2.64748662 [mEh]       1.66132293 [kcal/mol]       6.95097515 [kJ/mol]
      delta HF,r (2)               -0.64612735 [mEh]      -0.40545103 [kcal/mol]      -1.69640711 [kJ/mol]

    Dispersion                     -7.58884803 [mEh]      -4.76207403 [kcal/mol]     -19.92451775 [kJ/mol]
      Disp20                       -8.60153872 [mEh]      -5.39754703 [kcal/mol]     -22.58333679 [kJ/mol]
      Disp21                        1.22996368 [mEh]       0.77181386 [kcal/mol]       3.22926920 [kJ/mol]
      Disp22 (SDQ)                 -0.11521271 [mEh]      -0.07229707 [kcal/mol]      -0.30249093 [kJ/mol]
      Disp22 (T)                   -0.90914315 [mEh]      -0.57049594 [kcal/mol]      -2.38695500 [kJ/mol]
      Est. Disp22 (T)              -0.98059483 [mEh]      -0.61533255 [kcal/mol]      -2.57455138 [kJ/mol]
      Exch-Disp20                   0.87853455 [mEh]       0.55128876 [kcal/mol]       2.30659216 [kJ/mol]

  Total HF                        -96.46867973 [mEh]     -60.53501045 [kcal/mol]    -253.27848373 [kJ/mol]
  Total SAPT0                    -104.19168389 [mEh]     -65.38126873 [kcal/mol]    -273.55522837 [kJ/mol]
  Total SAPT2                     -99.57611539 [mEh]     -62.48495577 [kcal/mol]    -261.43705495 [kJ/mol]
  Total SAPT2+                    -99.44195926 [mEh]     -62.40077153 [kcal/mol]    -261.08482807 [kJ/mol]

  Special recipe for scaled SAPT0 (see Manual):
    Electrostatics sSAPT0         -98.19473178 [mEh]     -61.61812447 [kcal/mol]    -257.81023278 [kJ/mol]
    Exchange sSAPT0                21.38316093 [mEh]      13.41813606 [kcal/mol]      56.14148127 [kJ/mol]
    Induction sSAPT0              -19.57793330 [mEh]     -12.28533862 [kcal/mol]     -51.40185679 [kJ/mol]
    Dispersion sSAPT0              -7.71843020 [mEh]      -4.84338807 [kcal/mol]     -20.26473569 [kJ/mol]
  Total sSAPT0                   -104.10793435 [mEh]     -65.32871510 [kcal/mol]    -273.33534398 [kJ/mol]
  --------------------------------------------------------------------------------------------------------

*** Psi4 exiting successfully. Buy a developer a beer!
