                               Psi4 1.9 release

  ==> Input File <==

--------------------------------------------------------------------------
MEMORY 60 GB

molecule dimer {
1 1
K      0.000000     0.000000     0.000000
--
0 1
O     -1.401294    -2.319984     0.595642
H     -2.165323    -2.489013     0.056141
H     -1.692797    -2.298776     1.519253
O      2.059328     0.860530    -2.001607
H      2.218543     0.995393    -2.926651
H      2.931273     0.579426    -1.708589
O      0.139810    -2.074268    -2.048206
H     -0.472017    -2.790168    -2.193251
H      0.858437    -2.515223    -1.525697
O      1.813080    -1.091665     1.643608
H      2.014250    -0.544059     2.384550
H      2.088929    -1.972871     1.887999
O     -1.899757     0.527696    -1.929873
H     -1.769861    -0.112460    -2.593047
H     -2.048566     1.322323    -2.439166
O     -0.463187     2.715830     0.308455
H     -0.267254     3.616369    -0.030918
H     -0.970271     2.903521     1.119489

units ang
no_reorient
no_com
symmetry c1
}

set {
basis        aug-cc-pVTZ
scf_type     df
}

energy("sapt2+")
--------------------------------------------------------------------------

  //              Dimer HF             //
    Molecular point group: c1
  Charge       = 1
  Multiplicity = 1
  Basis Set: AUG-CC-PVTZ
    Blend: AUG-CC-PVTZ
  Basis Set: (AUG-CC-PVTZ AUX)
    Blend: AUG-CC-PVTZ-JKFIT + DEF2-UNIVERSAL-JKFIT
  @DF-RHF Final Energy: -1055.47448779327306
    Total Energy =                      -1055.4744877932730560
 Dipole X            :         -4.9390469            5.1196139            0.1805670
 Dipole Y            :         26.7114754          -27.1372722           -0.4257968
 Dipole Z            :         64.1825476          -64.0725532            0.1099944
 Magnitude           :                                                    0.4754010
  //            Monomer A HF           //
    Molecular point group: c1
  Multiplicity = 1
  Basis Set: AUG-CC-PVTZ
    Blend: AUG-CC-PVTZ
  Basis Set: (AUG-CC-PVTZ AUX)
    Blend: AUG-CC-PVTZ-JKFIT + DEF2-UNIVERSAL-JKFIT
  @DF-RHF Final Energy:  -599.01751697642419
    Total Energy =                       -599.0175169764240763
  //            Monomer B HF           //
    Molecular point group: c1

    Geometry (in Angstrom), charge = 0, multiplicity = 1:

       Center              X                  Y                   Z               Mass
    ------------   -----------------  -----------------  -----------------  -----------------
      Gh(K)           0.000000000000     0.000000000000     0.000000000000    38.963706486400
         O           -1.401294000000    -2.319984000000     0.595642000000    15.994914619570
         H           -2.165323000000    -2.489013000000     0.056141000000     1.007825032230
         H           -1.692797000000    -2.298776000000     1.519253000000     1.007825032230
         O            2.059328000000     0.860530000000    -2.001607000000    15.994914619570
         H            2.218543000000     0.995393000000    -2.926651000000     1.007825032230
         H            2.931273000000     0.579426000000    -1.708589000000     1.007825032230
         O            0.139810000000    -2.074268000000    -2.048206000000    15.994914619570
         H           -0.472017000000    -2.790168000000    -2.193251000000     1.007825032230
         H            0.858437000000    -2.515223000000    -1.525697000000     1.007825032230
         O            1.813080000000    -1.091665000000     1.643608000000    15.994914619570
         H            2.014250000000    -0.544059000000     2.384550000000     1.007825032230
         H            2.088929000000    -1.972871000000     1.887999000000     1.007825032230
         O           -1.899757000000     0.527696000000    -1.929873000000    15.994914619570
         H           -1.769861000000    -0.112460000000    -2.593047000000     1.007825032230
         H           -2.048566000000     1.322323000000    -2.439166000000     1.007825032230
         O           -0.463187000000     2.715830000000     0.308455000000    15.994914619570
         H           -0.267254000000     3.616369000000    -0.030918000000     1.007825032230
         H           -0.970271000000     2.903521000000     1.119489000000     1.007825032230

  Charge       = 0
  Multiplicity = 1
  Basis Set: AUG-CC-PVTZ
    Blend: AUG-CC-PVTZ
  Basis Set: (AUG-CC-PVTZ AUX)
    Blend: AUG-CC-PVTZ-JKFIT + DEF2-UNIVERSAL-JKFIT

    Orbital Energies [Eh]
    ---------------------

    Doubly Occupied:

       1A    -20.544939     2A    -20.541028     3A    -20.538755
       4A    -20.534798     5A    -20.533027     6A    -20.519638
       7A     -1.336608     8A     -1.323300     9A     -1.322043
      10A     -1.316953    11A     -1.313159    12A     -1.312341
      13A     -0.704710    14A     -0.695930    15A     -0.676478
      16A     -0.675987    17A     -0.671200    18A     -0.669478
      19A     -0.561939    20A     -0.556387    21A     -0.552902
      22A     -0.550762    23A     -0.548349    24A     -0.543615
      25A     -0.489804    26A     -0.481176    27A     -0.477810
      28A     -0.475210    29A     -0.472406    30A     -0.464351

  @DF-RHF Final Energy:  -456.34039191542007

   => Energetics <=

    Nuclear Repulsion Energy =            244.1922920657006273
    One-Electron Energy =               -1118.2551988114428241
    Two-Electron Energy =                 417.7225148303221545
    Total Energy =                       -456.3403919154200707
 Dipole X            :         -4.9272104            5.1196139            0.1924035
 Dipole Y            :         26.8168097          -27.1372722           -0.3204625
 Dipole Z            :         64.4369704          -64.0725532            0.3644172
 Magnitude           :                                                    0.5220299

    SAPT Results
  --------------------------------------------------------------------------------------------------------
    Electrostatics               -117.88268744 [mEh]     -73.97250317 [kcal/mol]    -309.50095324 [kJ/mol]
      Elst10,r                   -124.52944619 [mEh]     -78.14340725 [kcal/mol]    -326.95201593 [kJ/mol]
      Elst12,r                      6.64675875 [mEh]       4.17090408 [kcal/mol]      17.45106268 [kJ/mol]

    Exchange                       36.34930571 [mEh]      22.80953370 [kcal/mol]      95.43508899 [kJ/mol]
      Exch10                       32.69254527 [mEh]      20.51488188 [kcal/mol]      85.83426578 [kJ/mol]
      Exch10(S^2)                  32.63524967 [mEh]      20.47892835 [kcal/mol]      85.68383621 [kJ/mol]
      Exch11(S^2)                  -0.26809578 [mEh]      -0.16823264 [kcal/mol]      -0.70388538 [kJ/mol]
      Exch12(S^2)                   3.92485622 [mEh]       2.46288446 [kcal/mol]      10.30470859 [kJ/mol]

    Induction                     -28.76629853 [mEh]     -18.05112485 [kcal/mol]     -75.52590638 [kJ/mol]
      Ind20,r                     -46.05697139 [mEh]     -28.90118588 [kcal/mol]    -120.92256172 [kJ/mol]
      Ind22                        -7.84931741 [mEh]      -4.92552104 [kcal/mol]     -20.60838003 [kJ/mol]
      Exch-Ind20,r                 22.44383806 [mEh]      14.08372101 [kcal/mol]      58.92628871 [kJ/mol]
      Exch-Ind22                    3.82501940 [mEh]       2.40023591 [kcal/mol]      10.04258704 [kJ/mol]
      delta HF,r (2)               -1.12886719 [mEh]      -0.70837485 [kcal/mol]      -2.96384039 [kJ/mol]

    Dispersion                    -10.27628227 [mEh]      -6.44846448 [kcal/mol]     -26.98037539 [kJ/mol]
      Disp20                      -11.88459336 [mEh]      -7.45769492 [kcal/mol]     -31.20299556 [kJ/mol]
      Disp21                        1.72141816 [mEh]       1.08020620 [kcal/mol]       4.51958275 [kJ/mol]
      Disp22 (SDQ)                 -0.14581510 [mEh]      -0.09150035 [kcal/mol]      -0.38283748 [kJ/mol]
      Disp22 (T)                   -1.25184051 [mEh]      -0.78554178 [kcal/mol]      -3.28670681 [kJ/mol]
      Est. Disp22 (T)              -1.34859108 [mEh]      -0.84625368 [kcal/mol]      -3.54072539 [kJ/mol]
      Exch-Disp20                   1.38129911 [mEh]       0.86677828 [kcal/mol]       3.62660030 [kJ/mol]

  Total HF                       -116.57890143 [mEh]     -73.15436509 [kcal/mol]    -306.07786353 [kJ/mol]
  Total SAPT0                    -127.08219568 [mEh]     -79.74528174 [kcal/mol]    -333.65425879 [kJ/mol]
  Total SAPT2                    -120.80297451 [mEh]     -75.80501097 [kcal/mol]    -317.16816589 [kJ/mol]
  Total SAPT2+                   -120.57596253 [mEh]     -75.66255880 [kcal/mol]    -316.57214602 [kJ/mol]

  Special recipe for scaled SAPT0 (see Manual):
    Electrostatics sSAPT0        -124.52944619 [mEh]     -78.14340725 [kcal/mol]    -326.95201593 [kJ/mol]
    Exchange sSAPT0                32.69254527 [mEh]      20.51488188 [kcal/mol]      85.83426578 [kJ/mol]
    Induction sSAPT0              -24.62358326 [mEh]     -15.45153178 [kcal/mol]     -64.64920895 [kJ/mol]
    Dispersion sSAPT0             -10.49600630 [mEh]      -6.58634339 [kcal/mol]     -27.55726074 [kJ/mol]
  Total sSAPT0                   -126.95649048 [mEh]     -79.66640053 [kcal/mol]    -333.32421984 [kJ/mol]
  --------------------------------------------------------------------------------------------------------

*** Psi4 exiting successfully. Buy a developer a beer!
