                               Psi4 1.9 release

  ==> Input File <==

--------------------------------------------------------------------------
MEMORY 60 GB

molecule dimer {
1 1
K      0.000000     0.000000     0.000000
--
0 1
O      0.260703     2.699192    -0.819281
H      0.022127     3.429881    -1.445959
H      1.104134     3.079934    -0.434669
O      1.097032     0.079310     2.745102
H      1.412062     0.923683     2.987028
H      1.777563    -0.146764     2.181341
O     -2.730553     0.881808     0.899593
H     -2.493651     1.851589     0.688121
H     -2.847400     0.884946     1.830074
O     -1.654607    -0.656583    -2.067116
H     -1.968817    -0.064990    -2.722678
H     -2.340457    -1.379730    -1.961527
O      0.721932    -2.295296     1.132146
H      0.703083    -3.102510     0.511510
H      1.600267    -2.311320     1.651522

units ang
no_reorient
no_com
symmetry c1
}

set {
basis        aug-cc-pVTZ
scf_type     df
}

energy("sapt2+")
--------------------------------------------------------------------------

  //              Dimer HF             //
    Molecular point group: c1
  Charge       = 1
  Multiplicity = 1
  Basis Set: AUG-CC-PVTZ
    Blend: AUG-CC-PVTZ
  Basis Set: (AUG-CC-PVTZ AUX)
    Blend: AUG-CC-PVTZ-JKFIT + DEF2-UNIVERSAL-JKFIT
  @DF-RHF Final Energy:  -979.36893890842009
    Total Energy =                       -979.3689389084200911
 Dipole X            :         41.3617092          -40.5819309            0.7797783
 Dipole Y            :        -15.5534440           16.6903767            1.1369327
 Dipole Z            :        -35.0250712           34.7866738           -0.2383975
 Magnitude           :                                                    1.3991082
  //            Monomer A HF           //
    Molecular point group: c1
  Multiplicity = 1
  Basis Set: AUG-CC-PVTZ
    Blend: AUG-CC-PVTZ
  Basis Set: (AUG-CC-PVTZ AUX)
    Blend: AUG-CC-PVTZ-JKFIT + DEF2-UNIVERSAL-JKFIT
  @DF-RHF Final Energy:  -599.01751575364096
    Total Energy =                       -599.0175157536409642
  //            Monomer B HF           //
    Molecular point group: c1

    Geometry (in Angstrom), charge = 0, multiplicity = 1:

       Center              X                  Y                   Z               Mass
    ------------   -----------------  -----------------  -----------------  -----------------
      Gh(K)           0.000000000000     0.000000000000     0.000000000000    38.963706486400
         O            0.260703000000     2.699192000000    -0.819281000000    15.994914619570
         H            0.022127000000     3.429881000000    -1.445959000000     1.007825032230
         H            1.104134000000     3.079934000000    -0.434669000000     1.007825032230
         O            1.097032000000     0.079310000000     2.745102000000    15.994914619570
         H            1.412062000000     0.923683000000     2.987028000000     1.007825032230
         H            1.777563000000    -0.146764000000     2.181341000000     1.007825032230
         O           -2.730553000000     0.881808000000     0.899593000000    15.994914619570
         H           -2.493651000000     1.851589000000     0.688121000000     1.007825032230
         H           -2.847400000000     0.884946000000     1.830074000000     1.007825032230
         O           -1.654607000000    -0.656583000000    -2.067116000000    15.994914619570
         H           -1.968817000000    -0.064990000000    -2.722678000000     1.007825032230
         H           -2.340457000000    -1.379730000000    -1.961527000000     1.007825032230
         O            0.721932000000    -2.295296000000     1.132146000000    15.994914619570
         H            0.703083000000    -3.102510000000     0.511510000000     1.007825032230
         H            1.600267000000    -2.311320000000     1.651522000000     1.007825032230

  Charge       = 0
  Multiplicity = 1
  Basis Set: AUG-CC-PVTZ
    Blend: AUG-CC-PVTZ
  Basis Set: (AUG-CC-PVTZ AUX)
    Blend: AUG-CC-PVTZ-JKFIT + DEF2-UNIVERSAL-JKFIT

    Orbital Energies [Eh]
    ---------------------

    Doubly Occupied:

       1A    -20.572384     2A    -20.555705     3A    -20.546444
       4A    -20.537478     5A    -20.536491     6A     -1.361627
       7A     -1.333368     8A     -1.315855     9A     -1.310290
      10A     -1.301353    11A     -0.710123    12A     -0.686671
      13A     -0.683333    14A     -0.669916    15A     -0.668029
      16A     -0.587943    17A     -0.581282    18A     -0.548120
      19A     -0.544796    20A     -0.543050    21A     -0.504527
      22A     -0.497839    23A     -0.483343    24A     -0.477679
      25A     -0.473379

  @DF-RHF Final Energy:  -380.26273094811893

   => Energetics <=

    Nuclear Repulsion Energy =            168.2201584315172056
    One-Electron Energy =                -860.9037236463533418
    Two-Electron Energy =                 312.4208342667171792
    Total Energy =                       -380.2627309481189286
 Dipole X            :         41.5607006          -40.5819309            0.9787697
 Dipole Y            :        -15.5767914           16.6903767            1.1135853
 Dipole Z            :        -35.1248061           34.7866738           -0.3381324
 Magnitude           :                                                    1.5206564

    SAPT Results
  --------------------------------------------------------------------------------------------------------
    Electrostatics                -92.26923622 [mEh]     -57.89981987 [kcal/mol]    -242.25284632 [kJ/mol]
      Elst10,r                    -96.15784202 [mEh]     -60.33995684 [kcal/mol]    -252.46237943 [kJ/mol]
      Elst12,r                      3.88860580 [mEh]       2.44013698 [kcal/mol]      10.20953311 [kJ/mol]

    Exchange                       32.88287366 [mEh]      20.63431475 [kcal/mol]      86.33397291 [kJ/mol]
      Exch10                       29.23114811 [mEh]      18.34282237 [kcal/mol]      76.74636880 [kJ/mol]
      Exch10(S^2)                  29.16862145 [mEh]      18.30358630 [kcal/mol]      76.58220507 [kJ/mol]
      Exch11(S^2)                  -0.16727429 [mEh]      -0.10496620 [kcal/mol]      -0.43917858 [kJ/mol]
      Exch12(S^2)                   3.81899984 [mEh]       2.39645858 [kcal/mol]      10.02678269 [kJ/mol]

    Induction                     -25.48689620 [mEh]     -15.99326882 [kcal/mol]     -66.91583675 [kJ/mol]
      Ind20,r                     -43.18547448 [mEh]     -27.09929436 [kcal/mol]    -113.38344761 [kJ/mol]
      Ind22                        -7.70480319 [mEh]      -4.83483699 [kcal/mol]     -20.22895798 [kJ/mol]
      Exch-Ind20,r                 22.32709488 [mEh]      14.01046356 [kcal/mol]      58.61977953 [kJ/mol]
      Exch-Ind22                    3.98341975 [mEh]       2.49963363 [kcal/mol]      10.45846710 [kJ/mol]
      delta HF,r (2)               -0.90713316 [mEh]      -0.56923465 [kcal/mol]      -2.38167779 [kJ/mol]

    Dispersion                     -8.68797751 [mEh]      -5.45178819 [kcal/mol]     -22.81028181 [kJ/mol]
      Disp20                       -9.99157150 [mEh]      -6.26980578 [kcal/mol]     -26.23286737 [kJ/mol]
      Disp21                        1.37435497 [mEh]       0.86242076 [kcal/mol]       3.60836847 [kJ/mol]
      Disp22 (SDQ)                 -0.13270692 [mEh]      -0.08327485 [kcal/mol]      -0.34842198 [kJ/mol]
      Disp22 (T)                   -1.06042954 [mEh]      -0.66542958 [kcal/mol]      -2.78415738 [kJ/mol]
      Est. Disp22 (T)              -1.14723043 [mEh]      -0.71989797 [kcal/mol]      -3.01205309 [kJ/mol]
      Exch-Disp20                   1.20917639 [mEh]       0.75876964 [kcal/mol]       3.17469216 [kJ/mol]

  Total HF                        -88.69220666 [mEh]     -55.65519993 [kcal/mol]    -232.86135651 [kJ/mol]
  Total SAPT0                     -97.47460178 [mEh]     -61.16623607 [kcal/mol]    -255.91953171 [kJ/mol]
  Total SAPT2                     -93.65565388 [mEh]     -58.76981008 [kcal/mol]    -245.89288537 [kJ/mol]
  Total SAPT2+                    -93.56123627 [mEh]     -58.71056214 [kcal/mol]    -245.64499197 [kJ/mol]

  Special recipe for scaled SAPT0 (see Manual):
    Electrostatics sSAPT0         -96.15784202 [mEh]     -60.33995684 [kcal/mol]    -252.46237943 [kJ/mol]
    Exchange sSAPT0                29.23114811 [mEh]      18.34282237 [kcal/mol]      76.74636880 [kJ/mol]
    Induction sSAPT0              -21.62162181 [mEh]     -13.56777253 [kcal/mol]     -56.76756025 [kJ/mol]
    Dispersion sSAPT0              -8.77460236 [mEh]      -5.50614611 [kcal/mol]     -23.03771533 [kJ/mol]
  Total sSAPT0                    -97.32291808 [mEh]     -61.07105311 [kcal/mol]    -255.52128622 [kJ/mol]
  --------------------------------------------------------------------------------------------------------

*** Psi4 exiting successfully. Buy a developer a beer!
