                               Psi4 1.9 release

  ==> Input File <==

--------------------------------------------------------------------------
MEMORY 60 GB

molecule dimer {
1 1
K      0.000000     0.000000     0.000000
--
0 1
O     -2.635555    -0.276395     1.367629
H     -2.296026    -0.337391     2.286535
H     -3.490352    -0.708308     1.251761
O      2.756429    -0.515741    -0.495604
H      3.405562    -0.731420     0.158018
H      2.773624     0.411513    -0.812172
O      0.329265     0.299331    -2.532931
H      0.307016    -0.242145    -3.289589
H      0.466834     1.212367    -2.850108
O      0.201952     1.346168     2.493417
H     -0.355586     2.214469     2.733889
H     -0.029793     0.631912     3.061578
O     -1.125899    -2.279212    -1.110246
H     -1.831871    -2.461089    -1.782069
H     -0.507812    -3.042224    -1.253317

units ang
no_reorient
no_com
symmetry c1
}

set {
basis        aug-cc-pVTZ
scf_type     df
}

energy("sapt2+")
--------------------------------------------------------------------------

  //              Dimer HF             //
    Molecular point group: c1
  Charge       = 1
  Multiplicity = 1
  Basis Set: AUG-CC-PVTZ
    Blend: AUG-CC-PVTZ
  Basis Set: (AUG-CC-PVTZ AUX)
    Blend: AUG-CC-PVTZ-JKFIT + DEF2-UNIVERSAL-JKFIT
  @DF-RHF Final Energy:  -979.37881271523770
    Total Energy =                       -979.3788127152377001
 Dipole X            :          9.6599422          -10.1078956           -0.4479534
 Dipole Y            :         27.0783849          -27.3237541           -0.2453693
 Dipole Z            :          5.0468789           -5.1350548           -0.0881759
 Magnitude           :                                                    0.5183081
  //            Monomer A HF           //
    Molecular point group: c1
  Multiplicity = 1
  Basis Set: AUG-CC-PVTZ
    Blend: AUG-CC-PVTZ
  Basis Set: (AUG-CC-PVTZ AUX)
    Blend: AUG-CC-PVTZ-JKFIT + DEF2-UNIVERSAL-JKFIT
  @DF-RHF Final Energy:  -599.01751586764112
    Total Energy =                       -599.0175158676411229
  //            Monomer B HF           //
    Molecular point group: c1

    Geometry (in Angstrom), charge = 0, multiplicity = 1:

       Center              X                  Y                   Z               Mass
    ------------   -----------------  -----------------  -----------------  -----------------
      Gh(K)           0.000000000000     0.000000000000     0.000000000000    38.963706486400
         O           -2.635555000000    -0.276395000000     1.367629000000    15.994914619570
         H           -2.296026000000    -0.337391000000     2.286535000000     1.007825032230
         H           -3.490352000000    -0.708308000000     1.251761000000     1.007825032230
         O            2.756429000000    -0.515741000000    -0.495604000000    15.994914619570
         H            3.405562000000    -0.731420000000     0.158018000000     1.007825032230
         H            2.773624000000     0.411513000000    -0.812172000000     1.007825032230
         O            0.329265000000     0.299331000000    -2.532931000000    15.994914619570
         H            0.307016000000    -0.242145000000    -3.289589000000     1.007825032230
         H            0.466834000000     1.212367000000    -2.850108000000     1.007825032230
         O            0.201952000000     1.346168000000     2.493417000000    15.994914619570
         H           -0.355586000000     2.214469000000     2.733889000000     1.007825032230
         H           -0.029793000000     0.631912000000     3.061578000000     1.007825032230
         O           -1.125899000000    -2.279212000000    -1.110246000000    15.994914619570
         H           -1.831871000000    -2.461089000000    -1.782069000000     1.007825032230
         H           -0.507812000000    -3.042224000000    -1.253317000000     1.007825032230

  Charge       = 0
  Multiplicity = 1
  Basis Set: AUG-CC-PVTZ
    Blend: AUG-CC-PVTZ
  Basis Set: (AUG-CC-PVTZ AUX)
    Blend: AUG-CC-PVTZ-JKFIT + DEF2-UNIVERSAL-JKFIT

    Orbital Energies [Eh]
    ---------------------

    Doubly Occupied:

       1A    -20.556788     2A    -20.545446     3A    -20.543994
       4A    -20.539812     5A    -20.532097     6A     -1.329056
       7A     -1.318519     8A     -1.316716     9A     -1.312498
      10A     -1.309102    11A     -0.703307    12A     -0.702983
      13A     -0.698103    14A     -0.692273    15A     -0.665170
      16A     -0.556565    17A     -0.550011    18A     -0.548836
      19A     -0.540995    20A     -0.531046    21A     -0.490602
      22A     -0.485299    23A     -0.483354    24A     -0.476460
      25A     -0.475111

  @DF-RHF Final Energy:  -380.26440180840927

   => Energetics <=

    Nuclear Repulsion Energy =            168.3840204969202148
    One-Electron Energy =                -861.4885491587920114
    Two-Electron Energy =                 312.8401268534624933
    Total Energy =                       -380.2644018084092750
 Dipole X            :          9.7086260          -10.1078956           -0.3992696
 Dipole Y            :         27.2162305          -27.3237541           -0.1075237
 Dipole Z            :          5.1773847           -5.1350548            0.0423298
 Magnitude           :                                                    0.4156554

    SAPT Results
  --------------------------------------------------------------------------------------------------------
    Electrostatics               -101.48400920 [mEh]     -63.68217721 [kcal/mol]    -266.44622945 [kJ/mol]
      Elst10,r                   -106.46637433 [mEh]     -66.80865853 [kcal/mol]    -279.52742729 [kJ/mol]
      Elst12,r                      4.98236512 [mEh]       3.12648132 [kcal/mol]      13.08119783 [kJ/mol]

    Exchange                       35.48753378 [mEh]      22.26876365 [kcal/mol]      93.17250709 [kJ/mol]
      Exch10                       31.87136263 [mEh]      19.99958199 [kcal/mol]      83.67825105 [kJ/mol]
      Exch10(S^2)                  31.77878899 [mEh]      19.94149116 [kcal/mol]      83.43519900 [kJ/mol]
      Exch11(S^2)                  -0.18564333 [mEh]      -0.11649295 [kcal/mol]      -0.48740648 [kJ/mol]
      Exch12(S^2)                   3.80181447 [mEh]       2.38567460 [kcal/mol]       9.98166253 [kJ/mol]

    Induction                     -25.97575386 [mEh]     -16.30003164 [kcal/mol]     -68.19933236 [kJ/mol]
      Ind20,r                     -44.29723070 [mEh]     -27.79693193 [kcal/mol]    -116.30236319 [kJ/mol]
      Ind22                        -7.65192982 [mEh]      -4.80165846 [kcal/mol]     -20.09013898 [kJ/mol]
      Exch-Ind20,r                 23.01835035 [mEh]      14.44423291 [kcal/mol]      60.43467051 [kJ/mol]
      Exch-Ind22                    3.97620345 [mEh]       2.49510533 [kcal/mol]      10.43952071 [kJ/mol]
      delta HF,r (2)               -1.02114713 [mEh]      -0.64077950 [kcal/mol]      -2.68102142 [kJ/mol]

    Dispersion                     -9.15028304 [mEh]      -5.74188929 [kcal/mol]     -24.02406481 [kJ/mol]
      Disp20                      -10.60145609 [mEh]      -6.65251413 [kcal/mol]     -27.83411914 [kJ/mol]
      Disp21                        1.47746164 [mEh]       0.92712118 [kcal/mol]       3.87907501 [kJ/mol]
      Disp22 (SDQ)                 -0.12572842 [mEh]      -0.07889577 [kcal/mol]      -0.33009992 [kJ/mol]
      Disp22 (T)                   -1.10998998 [mEh]      -0.69652923 [kcal/mol]      -2.91427828 [kJ/mol]
      Est. Disp22 (T)              -1.20073612 [mEh]      -0.75347329 [kcal/mol]      -3.15253224 [kJ/mol]
      Exch-Disp20                   1.30017595 [mEh]       0.81587273 [kcal/mol]       3.41361148 [kJ/mol]

  Total HF                        -96.89503919 [mEh]     -60.80255505 [kcal/mol]    -254.39789034 [kJ/mol]
  Total SAPT0                    -106.19631933 [mEh]     -66.63919646 [kcal/mol]    -278.81839799 [kJ/mol]
  Total SAPT2                    -101.27350943 [mEh]     -63.55008661 [kcal/mol]    -265.89356238 [kJ/mol]
  Total SAPT2+                   -101.12251233 [mEh]     -63.45533450 [kcal/mol]    -265.49711953 [kJ/mol]

  Special recipe for scaled SAPT0 (see Manual):
    Electrostatics sSAPT0        -106.46637433 [mEh]     -66.80865853 [kcal/mol]    -279.52742729 [kJ/mol]
    Exchange sSAPT0                31.87136263 [mEh]      19.99958199 [kcal/mol]      83.67825105 [kJ/mol]
    Induction sSAPT0              -22.09827915 [mEh]     -13.86687952 [kcal/mol]     -58.01902393 [kJ/mol]
    Dispersion sSAPT0              -9.28988453 [mEh]      -5.82949055 [kcal/mol]     -24.39058846 [kJ/mol]
  Total sSAPT0                   -105.98317538 [mEh]     -66.50544661 [kcal/mol]    -278.25878863 [kJ/mol]
  --------------------------------------------------------------------------------------------------------

*** Psi4 exiting successfully. Buy a developer a beer!
