                               Psi4 1.9 release

  ==> Input File <==

--------------------------------------------------------------------------
MEMORY 60 GB

molecule dimer {
1 1
K      0.000000     0.000000     0.000000
--
0 1
O      1.288020     2.048155    -1.363242
H      2.289687     1.970546    -1.403737
H      1.067139     2.374250    -2.284171
O      1.081330    -2.084572    -0.974603
H      1.681074    -1.891306    -1.699856
H      0.899362    -3.081487    -1.002484
O      1.484184     1.194304     2.136076
H      1.433747     1.868088     2.889056
H      1.422654     0.344614     2.575615
O     -2.340818    -0.324700    -1.276031
H     -3.288057    -0.073244    -1.237822
H     -2.441854    -1.272455    -1.265717
O     -1.588027    -0.288334     1.906629
H     -1.962376     0.465498     2.313524
H     -1.373894    -0.914990     2.624297

units ang
no_reorient
no_com
symmetry c1
}

set {
basis        aug-cc-pVTZ
scf_type     df
}

energy("sapt2+")
--------------------------------------------------------------------------

  //              Dimer HF             //
    Molecular point group: c1
  Charge       = 1
  Multiplicity = 1
  Basis Set: AUG-CC-PVTZ
    Blend: AUG-CC-PVTZ
  Basis Set: (AUG-CC-PVTZ AUX)
    Blend: AUG-CC-PVTZ-JKFIT + DEF2-UNIVERSAL-JKFIT
  @DF-RHF Final Energy:  -979.38480558990318
    Total Energy =                       -979.3848055899031806
 Dipole X            :          1.5044163           -1.6535217           -0.1491054
 Dipole Y            :         -8.6692186            7.8392227           -0.8299959
 Dipole Z            :         -8.8697004            9.3339942            0.4642937
 Magnitude           :                                                    0.9626497
  //            Monomer A HF           //
    Molecular point group: c1
  Multiplicity = 1
  Basis Set: AUG-CC-PVTZ
    Blend: AUG-CC-PVTZ
  Basis Set: (AUG-CC-PVTZ AUX)
    Blend: AUG-CC-PVTZ-JKFIT + DEF2-UNIVERSAL-JKFIT
  @DF-RHF Final Energy:  -599.01751633483514
    Total Energy =                       -599.0175163348351361
  //            Monomer B HF           //
    Molecular point group: c1

    Geometry (in Angstrom), charge = 0, multiplicity = 1:

       Center              X                  Y                   Z               Mass
    ------------   -----------------  -----------------  -----------------  -----------------
      Gh(K)           0.000000000000     0.000000000000     0.000000000000    38.963706486400
         O            1.288020000000     2.048155000000    -1.363242000000    15.994914619570
         H            2.289687000000     1.970546000000    -1.403737000000     1.007825032230
         H            1.067139000000     2.374250000000    -2.284171000000     1.007825032230
         O            1.081330000000    -2.084572000000    -0.974603000000    15.994914619570
         H            1.681074000000    -1.891306000000    -1.699856000000     1.007825032230
         H            0.899362000000    -3.081487000000    -1.002484000000     1.007825032230
         O            1.484184000000     1.194304000000     2.136076000000    15.994914619570
         H            1.433747000000     1.868088000000     2.889056000000     1.007825032230
         H            1.422654000000     0.344614000000     2.575615000000     1.007825032230
         O           -2.340818000000    -0.324700000000    -1.276031000000    15.994914619570
         H           -3.288057000000    -0.073244000000    -1.237822000000     1.007825032230
         H           -2.441854000000    -1.272455000000    -1.265717000000     1.007825032230
         O           -1.588027000000    -0.288334000000     1.906629000000    15.994914619570
         H           -1.962376000000     0.465498000000     2.313524000000     1.007825032230
         H           -1.373894000000    -0.914990000000     2.624297000000     1.007825032230

  Charge       = 0
  Multiplicity = 1
  Basis Set: AUG-CC-PVTZ
    Blend: AUG-CC-PVTZ
  Basis Set: (AUG-CC-PVTZ AUX)
    Blend: AUG-CC-PVTZ-JKFIT + DEF2-UNIVERSAL-JKFIT

    Orbital Energies [Eh]
    ---------------------

    Doubly Occupied:

       1A    -20.552401     2A    -20.544915     3A    -20.544893
       4A    -20.541672     5A    -20.536538     6A     -1.329382
       7A     -1.318605     8A     -1.317995     9A     -1.313062
      10A     -1.300637    11A     -0.699035    12A     -0.687071
      13A     -0.675214    14A     -0.666503    15A     -0.656498
      16A     -0.559660    17A     -0.554307    18A     -0.553215
      19A     -0.552066    20A     -0.545009    21A     -0.491231
      22A     -0.487835    23A     -0.476582    24A     -0.475124
      25A     -0.472780

  @DF-RHF Final Energy:  -380.26926092232770

   => Energetics <=

    Nuclear Repulsion Energy =            169.8059510694779988
    One-Electron Energy =                -864.4459574950882370
    Two-Electron Energy =                 314.3707455032824782
    Total Energy =                       -380.2692609223277032
 Dipole X            :          1.5740192           -1.6535217           -0.0795025
 Dipole Y            :         -8.6515340            7.8392227           -0.8123113
 Dipole Z            :         -8.9153039            9.3339942            0.4186902
 Magnitude           :                                                    0.9173178

    SAPT Results
  --------------------------------------------------------------------------------------------------------
    Electrostatics               -118.05399247 [mEh]     -74.07999869 [kcal/mol]    -309.95071452 [kJ/mol]
      Elst10,r                   -123.95693006 [mEh]     -77.78414795 [kcal/mol]    -325.44887503 [kJ/mol]
      Elst12,r                      5.90293759 [mEh]       3.70414926 [kcal/mol]      15.49816051 [kJ/mol]

    Exchange                       56.50398656 [mEh]      35.45678687 [kcal/mol]     148.35119627 [kJ/mol]
      Exch10                       51.94970696 [mEh]      32.59893328 [kcal/mol]     136.39393683 [kJ/mol]
      Exch10(S^2)                  51.77256929 [mEh]      32.48777771 [kcal/mol]     135.92886195 [kJ/mol]
      Exch11(S^2)                  -0.36900650 [mEh]      -0.23155508 [kcal/mol]      -0.96882644 [kJ/mol]
      Exch12(S^2)                   4.92328610 [mEh]       3.08940867 [kcal/mol]      12.92608588 [kJ/mol]

    Induction                     -30.05093646 [mEh]     -18.85724733 [kcal/mol]     -78.89872282 [kJ/mol]
      Ind20,r                     -61.56053818 [mEh]     -38.62982092 [kcal/mol]    -161.62717073 [kJ/mol]
      Ind22                       -10.06987851 [mEh]      -6.31894417 [kcal/mol]     -26.43846239 [kJ/mol]
      Exch-Ind20,r                 36.92485785 [mEh]      23.17069812 [kcal/mol]      96.94620092 [kJ/mol]
      Exch-Ind22                    6.04005169 [mEh]       3.79018966 [kcal/mol]      15.85815352 [kJ/mol]
      delta HF,r (2)               -1.38542931 [mEh]      -0.86937002 [kcal/mol]      -3.63744415 [kJ/mol]

    Dispersion                    -11.80776555 [mEh]      -7.40948475 [kcal/mol]     -31.00128417 [kJ/mol]
      Disp20                      -14.23846773 [mEh]      -8.93477339 [kcal/mol]     -37.38309186 [kJ/mol]
      Disp21                        2.04177077 [mEh]       1.28123050 [kcal/mol]       5.36066841 [kJ/mol]
      Disp22 (SDQ)                 -0.13039144 [mEh]      -0.08182186 [kcal/mol]      -0.34234268 [kJ/mol]
      Disp22 (T)                   -1.45343628 [mEh]      -0.91204504 [kcal/mol]      -3.81599643 [kJ/mol]
      Est. Disp22 (T)              -1.57487804 [mEh]      -0.98825089 [kcal/mol]      -4.13484172 [kJ/mol]
      Exch-Disp20                   2.09420089 [mEh]       1.31413090 [kcal/mol]       5.49832367 [kJ/mol]

  Total HF                        -98.02833274 [mEh]     -61.51370749 [kcal/mol]    -257.37335215 [kJ/mol]
  Total SAPT0                    -110.17259958 [mEh]     -69.13434999 [kcal/mol]    -289.25812035 [kJ/mol]
  Total SAPT2                    -103.74520921 [mEh]     -65.10110164 [kcal/mol]    -272.38300926 [kJ/mol]
  Total SAPT2+                   -103.40870792 [mEh]     -64.88994389 [kcal/mol]    -271.49952524 [kJ/mol]

  Special recipe for scaled SAPT0 (see Manual):
    Electrostatics sSAPT0        -123.95693006 [mEh]     -77.78414795 [kcal/mol]    -325.44887503 [kJ/mol]
    Exchange sSAPT0                51.94970696 [mEh]      32.59893328 [kcal/mol]     136.39393683 [kJ/mol]
    Induction sSAPT0              -25.64080085 [mEh]     -16.08984545 [kcal/mol]     -67.31991337 [kJ/mol]
    Dispersion sSAPT0             -12.12269755 [mEh]      -7.60710756 [kcal/mol]     -31.82813803 [kJ/mol]
  Total sSAPT0                   -109.77072150 [mEh]     -68.88216769 [kcal/mol]    -288.20298960 [kJ/mol]
  --------------------------------------------------------------------------------------------------------

*** Psi4 exiting successfully. Buy a developer a beer!
