                               Psi4 1.9 release

  ==> Input File <==

--------------------------------------------------------------------------
MEMORY 60 GB

molecule dimer {
1 1
K      0.000000     0.000000     0.000000
--
0 1
O      1.649798    -2.297513     0.068375
H      0.966347    -3.009432     0.268920
H      2.415982    -2.455505     0.666808
O     -1.651512     1.316542     1.618952
H     -2.531349     1.240121     2.010840
H     -1.216179     2.096571     2.037483
O     -2.184128    -0.807746    -0.773576
H     -2.827219    -1.529499    -0.681704
H     -2.210682    -0.412574    -1.661052
O      1.487946     1.247924     2.225563
H      1.142883     1.150397     3.114392
H      2.490161     1.303890     2.274317

units ang
no_reorient
no_com
symmetry c1
}

set {
basis        aug-cc-pVTZ
scf_type     df
}

energy("sapt2+")
--------------------------------------------------------------------------

  //              Dimer HF             //
    Molecular point group: c1
  Charge       = 1
  Multiplicity = 1
  Basis Set: AUG-CC-PVTZ
    Blend: AUG-CC-PVTZ
  Basis Set: (AUG-CC-PVTZ AUX)
    Blend: AUG-CC-PVTZ-JKFIT + DEF2-UNIVERSAL-JKFIT
  @DF-RHF Final Energy:  -903.31970309407916
    Total Energy =                       -903.3197030940791592
 Dipole X            :         13.4723307          -13.8955795           -0.4232488
 Dipole Y            :         10.7834387          -11.2294613           -0.4460226
 Dipole Z            :        -61.2372600           62.6340578            1.3967978
 Magnitude           :                                                    1.5261454
  //            Monomer A HF           //
    Molecular point group: c1
  Multiplicity = 1
  Basis Set: AUG-CC-PVTZ
    Blend: AUG-CC-PVTZ
  Basis Set: (AUG-CC-PVTZ AUX)
    Blend: AUG-CC-PVTZ-JKFIT + DEF2-UNIVERSAL-JKFIT
  @DF-RHF Final Energy:  -599.01751418858498
    Total Energy =                       -599.0175141885849825
  //            Monomer B HF           //
    Molecular point group: c1

    Geometry (in Angstrom), charge = 0, multiplicity = 1:

       Center              X                  Y                   Z               Mass
    ------------   -----------------  -----------------  -----------------  -----------------
      Gh(K)           0.000000000000     0.000000000000     0.000000000000    38.963706486400
         O            1.649798000000    -2.297513000000     0.068375000000    15.994914619570
         H            0.966347000000    -3.009432000000     0.268920000000     1.007825032230
         H            2.415982000000    -2.455505000000     0.666808000000     1.007825032230
         O           -1.651512000000     1.316542000000     1.618952000000    15.994914619570
         H           -2.531349000000     1.240121000000     2.010840000000     1.007825032230
         H           -1.216179000000     2.096571000000     2.037483000000     1.007825032230
         O           -2.184128000000    -0.807746000000    -0.773576000000    15.994914619570
         H           -2.827219000000    -1.529499000000    -0.681704000000     1.007825032230
         H           -2.210682000000    -0.412574000000    -1.661052000000     1.007825032230
         O            1.487946000000     1.247924000000     2.225563000000    15.994914619570
         H            1.142883000000     1.150397000000     3.114392000000     1.007825032230
         H            2.490161000000     1.303890000000     2.274317000000     1.007825032230

  Charge       = 0
  Multiplicity = 1
  Basis Set: AUG-CC-PVTZ
    Blend: AUG-CC-PVTZ
  Basis Set: (AUG-CC-PVTZ AUX)
    Blend: AUG-CC-PVTZ-JKFIT + DEF2-UNIVERSAL-JKFIT

    Orbital Energies [Eh]
    ---------------------

    Doubly Occupied:

       1A    -20.556404     2A    -20.552473     3A    -20.543826
       4A    -20.541606     5A     -1.326195     6A     -1.319165
       7A     -1.314184     8A     -1.312575     9A     -0.700868
      10A     -0.700289    11A     -0.682991    12A     -0.681411
      13A     -0.558456    14A     -0.551697    15A     -0.551131
      16A     -0.537812    17A     -0.494150    18A     -0.485614
      19A     -0.484365    20A     -0.478840

  @DF-RHF Final Energy:  -304.21930566032432

   => Energetics <=

    Nuclear Repulsion Energy =            111.8013236482638604
    One-Electron Energy =                -643.2931457702425178
    Two-Electron Energy =                 227.2725164616543339
    Total Energy =                       -304.2193056603243235
 Dipole X            :         13.6613510          -13.8955795           -0.2342285
 Dipole Y            :         10.8839965          -11.2294613           -0.3454648
 Dipole Z            :        -61.5513530           62.6340578            1.0827048
 Magnitude           :                                                    1.1603701

    SAPT Results
  --------------------------------------------------------------------------------------------------------
    Electrostatics                -96.02249409 [mEh]     -60.25502474 [kcal/mol]    -252.10702349 [kJ/mol]
      Elst10,r                   -100.54454311 [mEh]     -63.09265334 [kcal/mol]    -263.97966157 [kJ/mol]
      Elst12,r                      4.52204902 [mEh]       2.83762860 [kcal/mol]      11.87263808 [kJ/mol]

    Exchange                       42.39997370 [mEh]      26.60638518 [kcal/mol]     111.32111561 [kJ/mol]
      Exch10                       38.71969318 [mEh]      24.29697430 [kcal/mol]     101.65854045 [kJ/mol]
      Exch10(S^2)                  38.49579265 [mEh]      24.15647459 [kcal/mol]     101.07068969 [kJ/mol]
      Exch11(S^2)                  -0.13563404 [mEh]      -0.08511165 [kcal/mol]      -0.35610713 [kJ/mol]
      Exch12(S^2)                   3.81591456 [mEh]       2.39452254 [kcal/mol]      10.01868229 [kJ/mol]

    Induction                     -24.27338043 [mEh]     -15.23177618 [kcal/mol]     -63.72975154 [kJ/mol]
      Ind20,r                     -48.24322124 [mEh]     -30.27307837 [kcal/mol]    -126.66255992 [kJ/mol]
      Ind22                        -7.82736734 [mEh]      -4.91174716 [kcal/mol]     -20.55075012 [kJ/mol]
      Exch-Ind20,r                 28.42797112 [mEh]      17.83882120 [kcal/mol]      74.63762790 [kJ/mol]
      Exch-Ind22                    4.61238215 [mEh]       2.89431350 [kcal/mol]      12.10980767 [kJ/mol]
      delta HF,r (2)               -1.24314512 [mEh]      -0.78008534 [kcal/mol]      -3.26387707 [kJ/mol]

    Dispersion                     -8.86781309 [mEh]      -5.56463673 [kcal/mol]     -23.28244007 [kJ/mol]
      Disp20                      -10.54619795 [mEh]      -6.61783913 [kcal/mol]     -27.68903890 [kJ/mol]
      Disp21                        1.46069424 [mEh]       0.91659947 [kcal/mol]       3.83505219 [kJ/mol]
      Disp22 (SDQ)                 -0.10402790 [mEh]      -0.06527849 [kcal/mol]      -0.27312521 [kJ/mol]
      Disp22 (T)                   -1.06143435 [mEh]      -0.66606011 [kcal/mol]      -2.78679550 [kJ/mol]
      Est. Disp22 (T)              -1.15415297 [mEh]      -0.72424192 [kcal/mol]      -3.03022821 [kJ/mol]
      Exch-Disp20                   1.47587149 [mEh]       0.92612334 [kcal/mol]       3.87490006 [kJ/mol]

  Total HF                        -82.88324517 [mEh]     -52.01002156 [kcal/mol]    -217.60993021 [kJ/mol]
  Total SAPT0                     -91.95357163 [mEh]     -57.70173735 [kcal/mol]    -241.42406906 [kJ/mol]
  Total SAPT2                     -86.96622728 [mEh]     -54.57213152 [kcal/mol]    -228.32979826 [kJ/mol]
  Total SAPT2+                    -86.76371391 [mEh]     -54.44505246 [kcal/mol]    -227.79809949 [kJ/mol]

  Special recipe for scaled SAPT0 (see Manual):
    Electrostatics sSAPT0        -100.54454311 [mEh]     -63.09265334 [kcal/mol]    -263.97966157 [kJ/mol]
    Exchange sSAPT0                38.71969318 [mEh]      24.29697430 [kcal/mol]     101.65854045 [kJ/mol]
    Induction sSAPT0              -20.55947344 [mEh]     -12.90126436 [kcal/mol]     -53.97889007 [kJ/mol]
    Dispersion sSAPT0              -9.04442435 [mEh]      -5.67546196 [kcal/mol]     -23.74613286 [kJ/mol]
  Total sSAPT0                    -91.42874771 [mEh]     -57.37240536 [kcal/mol]    -240.04614404 [kJ/mol]
  --------------------------------------------------------------------------------------------------------

*** Psi4 exiting successfully. Buy a developer a beer!
