                               Psi4 1.9 release

  ==> Input File <==

--------------------------------------------------------------------------
MEMORY 60 GB

molecule dimer {
1 1
K      0.000000     0.000000     0.000000
--
0 1
O      0.612876    -1.115935    -2.349051
H      0.426290    -1.552454    -3.196404
H      1.249709    -1.726035    -1.997265
O      0.226950    -1.309350     2.562510
H      0.264022    -0.641943     3.257966
H      1.068749    -1.730800     2.570162
O     -2.056105     0.919747    -1.186773
H     -2.198049     0.297455    -1.925318
H     -2.809767     1.060828    -0.585807
O     -1.976233    -2.079701    -0.110673
H     -1.733104    -3.050987    -0.116702
H     -2.703697    -1.948167    -0.750612
O      1.852186     1.592652     1.468527
H      2.464721     2.245763     1.040167
H      1.990939     1.633926     2.445297
O      2.746451    -1.160995     0.084226
H      3.055897    -0.685917    -0.671043
H      3.443294    -1.731569     0.452839

units ang
no_reorient
no_com
symmetry c1
}

set {
basis        aug-cc-pVTZ
scf_type     df
}

energy("sapt2+")
--------------------------------------------------------------------------

  //              Dimer HF             //
    Molecular point group: c1
  Charge       = 1
  Multiplicity = 1
  Basis Set: AUG-CC-PVTZ
    Blend: AUG-CC-PVTZ
  Basis Set: (AUG-CC-PVTZ AUX)
    Blend: AUG-CC-PVTZ-JKFIT + DEF2-UNIVERSAL-JKFIT
  @DF-RHF Final Energy: -1055.45470379730205
    Total Energy =                      -1055.4547037973020451
 Dipole X            :        -28.5815246           29.7972091            1.2156846
 Dipole Y            :         61.2797063          -62.4716169           -1.1919106
 Dipole Z            :         -8.3332316            8.0755707           -0.2576608
 Magnitude           :                                                    1.7218969
  //            Monomer A HF           //
    Molecular point group: c1
  Multiplicity = 1
  Basis Set: AUG-CC-PVTZ
    Blend: AUG-CC-PVTZ
  Basis Set: (AUG-CC-PVTZ AUX)
    Blend: AUG-CC-PVTZ-JKFIT + DEF2-UNIVERSAL-JKFIT
  @DF-RHF Final Energy:  -599.01751694881932
    Total Energy =                       -599.0175169488193205
  //            Monomer B HF           //
    Molecular point group: c1

    Geometry (in Angstrom), charge = 0, multiplicity = 1:

       Center              X                  Y                   Z               Mass
    ------------   -----------------  -----------------  -----------------  -----------------
      Gh(K)           0.000000000000     0.000000000000     0.000000000000    38.963706486400
         O            0.612876000000    -1.115935000000    -2.349051000000    15.994914619570
         H            0.426290000000    -1.552454000000    -3.196404000000     1.007825032230
         H            1.249709000000    -1.726035000000    -1.997265000000     1.007825032230
         O            0.226950000000    -1.309350000000     2.562510000000    15.994914619570
         H            0.264022000000    -0.641943000000     3.257966000000     1.007825032230
         H            1.068749000000    -1.730800000000     2.570162000000     1.007825032230
         O           -2.056105000000     0.919747000000    -1.186773000000    15.994914619570
         H           -2.198049000000     0.297455000000    -1.925318000000     1.007825032230
         H           -2.809767000000     1.060828000000    -0.585807000000     1.007825032230
         O           -1.976233000000    -2.079701000000    -0.110673000000    15.994914619570
         H           -1.733104000000    -3.050987000000    -0.116702000000     1.007825032230
         H           -2.703697000000    -1.948167000000    -0.750612000000     1.007825032230
         O            1.852186000000     1.592652000000     1.468527000000    15.994914619570
         H            2.464721000000     2.245763000000     1.040167000000     1.007825032230
         H            1.990939000000     1.633926000000     2.445297000000     1.007825032230
         O            2.746451000000    -1.160995000000     0.084226000000    15.994914619570
         H            3.055897000000    -0.685917000000    -0.671043000000     1.007825032230
         H            3.443294000000    -1.731569000000     0.452839000000     1.007825032230

  Charge       = 0
  Multiplicity = 1
  Basis Set: AUG-CC-PVTZ
    Blend: AUG-CC-PVTZ
  Basis Set: (AUG-CC-PVTZ AUX)
    Blend: AUG-CC-PVTZ-JKFIT + DEF2-UNIVERSAL-JKFIT

    Orbital Energies [Eh]
    ---------------------

    Doubly Occupied:

       1A    -20.551884     2A    -20.547314     3A    -20.545490
       4A    -20.539687     5A    -20.529751     6A    -20.527637
       7A     -1.337042     8A     -1.331270     9A     -1.318996
      10A     -1.311122    11A     -1.304365    12A     -1.299401
      13A     -0.718809    14A     -0.692514    15A     -0.687264
      16A     -0.683230    17A     -0.681169    18A     -0.675432
      19A     -0.568847    20A     -0.558734    21A     -0.547522
      22A     -0.544273    23A     -0.536249    24A     -0.520786
      25A     -0.499326    26A     -0.489655    27A     -0.478524
      28A     -0.473759    29A     -0.472403    30A     -0.464840

  @DF-RHF Final Energy:  -456.32595533431885

   => Energetics <=

    Nuclear Repulsion Energy =            246.7248727817935787
    One-Electron Energy =               -1123.2270552054694690
    Two-Electron Energy =                 420.1762270893570417
    Total Energy =                       -456.3259553343188486
 Dipole X            :        -28.6198408           29.7972091            1.1773683
 Dipole Y            :         61.5507021          -62.4716169           -0.9209148
 Dipole Z            :         -8.3010365            8.0755707           -0.2254658
 Magnitude           :                                                    1.5116597

    SAPT Results
  --------------------------------------------------------------------------------------------------------
    Electrostatics               -119.16505048 [mEh]     -74.77719812 [kcal/mol]    -312.86779694 [kJ/mol]
      Elst10,r                   -125.34664700 [mEh]     -78.65620850 [kcal/mol]    -329.09757637 [kJ/mol]
      Elst12,r                      6.18159652 [mEh]       3.87901038 [kcal/mol]      16.22977943 [kJ/mol]

    Exchange                       43.97361019 [mEh]      27.59385699 [kcal/mol]     115.45269764 [kJ/mol]
      Exch10                       39.72198832 [mEh]      24.92592399 [kcal/mol]     104.29006596 [kJ/mol]
      Exch10(S^2)                  39.58498814 [mEh]      24.83995508 [kcal/mol]     103.93037205 [kJ/mol]
      Exch11(S^2)                  -0.33773847 [mEh]      -0.21193409 [kcal/mol]      -0.88673224 [kJ/mol]
      Exch12(S^2)                   4.58936034 [mEh]       2.87986709 [kcal/mol]      12.04936391 [kJ/mol]

    Induction                     -29.93324410 [mEh]     -18.78339425 [kcal/mol]     -78.58972156 [kJ/mol]
      Ind20,r                     -53.23902984 [mEh]     -33.40799560 [kcal/mol]    -139.77905358 [kJ/mol]
      Ind22                        -9.45556458 [mEh]      -5.93345635 [kcal/mol]     -24.82558139 [kJ/mol]
      Exch-Ind20,r                 28.87953962 [mEh]      18.12218471 [kcal/mol]      75.82322082 [kJ/mol]
      Exch-Ind22                    5.12917596 [mEh]       3.21860651 [kcal/mol]      13.46664962 [kJ/mol]
      delta HF,r (2)               -1.24736526 [mEh]      -0.78273352 [kcal/mol]      -3.27495704 [kJ/mol]

    Dispersion                    -11.10749095 [mEh]      -6.97005580 [kcal/mol]     -29.16271347 [kJ/mol]
      Disp20                      -13.00879678 [mEh]      -8.16314322 [kcal/mol]     -34.15459124 [kJ/mol]
      Disp21                        1.88049391 [mEh]       1.18002774 [kcal/mol]       4.93723607 [kJ/mol]
      Disp22 (SDQ)                 -0.15749985 [mEh]      -0.09883265 [kcal/mol]      -0.41351581 [kJ/mol]
      Disp22 (T)                   -1.38068686 [mEh]      -0.86639409 [kcal/mol]      -3.62499286 [kJ/mol]
      Est. Disp22 (T)              -1.48600300 [mEh]      -0.93248096 [kcal/mol]      -3.90150033 [kJ/mol]
      Exch-Disp20                   1.66431478 [mEh]       1.04437329 [kcal/mol]       4.36965785 [kJ/mol]

  Total HF                       -111.23151416 [mEh]     -69.79882892 [kcal/mol]    -292.03830020 [kJ/mol]
  Total SAPT0                    -122.57599617 [mEh]     -76.91759885 [kcal/mol]    -321.82323360 [kJ/mol]
  Total SAPT2                    -116.46916640 [mEh]     -73.08550532 [kcal/mol]    -305.78975426 [kJ/mol]
  Total SAPT2+                   -116.23217535 [mEh]     -72.93679119 [kcal/mol]    -305.16753433 [kJ/mol]

  Special recipe for scaled SAPT0 (see Manual):
    Electrostatics sSAPT0        -125.34664700 [mEh]     -78.65620850 [kcal/mol]    -329.09757637 [kJ/mol]
    Exchange sSAPT0                39.72198832 [mEh]      24.92592399 [kcal/mol]     104.29006596 [kJ/mol]
    Induction sSAPT0              -25.30596786 [mEh]     -15.87973458 [kcal/mol]     -66.44080947 [kJ/mol]
    Dispersion sSAPT0             -11.32714199 [mEh]      -7.10788891 [kcal/mol]     -29.73940719 [kJ/mol]
  Total sSAPT0                   -122.25776853 [mEh]     -76.71790800 [kcal/mol]    -320.98772706 [kJ/mol]
  --------------------------------------------------------------------------------------------------------

*** Psi4 exiting successfully. Buy a developer a beer!
