                               Psi4 1.9 release

  ==> Input File <==

--------------------------------------------------------------------------
MEMORY 60 GB

molecule dimer {
1 1
K      0.000000     0.000000     0.000000
--
0 1
O      0.193604     2.456516    -0.745826
H      1.027191     2.951756    -0.793227
H     -0.562560     3.072946    -0.858144
O     -1.232242    -2.233013     0.683210
H     -1.372938    -2.937211    -0.025695
H     -1.366802    -2.615033     1.557785
O      2.594873     0.295506     0.744422
H      2.858332     1.115974     1.121168
H      3.402181    -0.102967     0.308189
O      0.305749    -1.494227    -2.346204
H     -0.487855    -1.900339    -2.732699
H      0.656706    -2.159673    -1.779934
O      0.354684     0.631866     2.696786
H      0.743905     1.438358     3.041235
H      0.890030    -0.053433     3.042617
O     -2.758490     0.097649    -0.258778
H     -3.113201     0.864523    -0.650413
H     -2.526952     0.402207     0.644990

units ang
no_reorient
no_com
symmetry c1
}

set {
basis        aug-cc-pVTZ
scf_type     df
}

energy("sapt2+")
--------------------------------------------------------------------------

  //              Dimer HF             //
    Molecular point group: c1
  Charge       = 1
  Multiplicity = 1
  Basis Set: AUG-CC-PVTZ
    Blend: AUG-CC-PVTZ
  Basis Set: (AUG-CC-PVTZ AUX)
    Blend: AUG-CC-PVTZ-JKFIT + DEF2-UNIVERSAL-JKFIT
  @DF-RHF Final Energy: -1055.45387266102398
    Total Energy =                      -1055.4538726610239792
 Dipole X            :          8.7192456           -7.9114121            0.8078334
 Dipole Y            :          3.9582299           -3.5687780            0.3894519
 Dipole Z            :        -16.2376315           17.1298987            0.8922672
 Magnitude           :                                                    1.2650725
  //            Monomer A HF           //
    Molecular point group: c1
  Multiplicity = 1
  Basis Set: AUG-CC-PVTZ
    Blend: AUG-CC-PVTZ
  Basis Set: (AUG-CC-PVTZ AUX)
    Blend: AUG-CC-PVTZ-JKFIT + DEF2-UNIVERSAL-JKFIT
  @DF-RHF Final Energy:  -599.01751741117914
    Total Energy =                       -599.0175174111792558
  //            Monomer B HF           //
    Molecular point group: c1

    Geometry (in Angstrom), charge = 0, multiplicity = 1:

       Center              X                  Y                   Z               Mass
    ------------   -----------------  -----------------  -----------------  -----------------
      Gh(K)           0.000000000000     0.000000000000     0.000000000000    38.963706486400
         O            0.193604000000     2.456516000000    -0.745826000000    15.994914619570
         H            1.027191000000     2.951756000000    -0.793227000000     1.007825032230
         H           -0.562560000000     3.072946000000    -0.858144000000     1.007825032230
         O           -1.232242000000    -2.233013000000     0.683210000000    15.994914619570
         H           -1.372938000000    -2.937211000000    -0.025695000000     1.007825032230
         H           -1.366802000000    -2.615033000000     1.557785000000     1.007825032230
         O            2.594873000000     0.295506000000     0.744422000000    15.994914619570
         H            2.858332000000     1.115974000000     1.121168000000     1.007825032230
         H            3.402181000000    -0.102967000000     0.308189000000     1.007825032230
         O            0.305749000000    -1.494227000000    -2.346204000000    15.994914619570
         H           -0.487855000000    -1.900339000000    -2.732699000000     1.007825032230
         H            0.656706000000    -2.159673000000    -1.779934000000     1.007825032230
         O            0.354684000000     0.631866000000     2.696786000000    15.994914619570
         H            0.743905000000     1.438358000000     3.041235000000     1.007825032230
         H            0.890030000000    -0.053433000000     3.042617000000     1.007825032230
         O           -2.758490000000     0.097649000000    -0.258778000000    15.994914619570
         H           -3.113201000000     0.864523000000    -0.650413000000     1.007825032230
         H           -2.526952000000     0.402207000000     0.644990000000     1.007825032230

  Charge       = 0
  Multiplicity = 1
  Basis Set: AUG-CC-PVTZ
    Blend: AUG-CC-PVTZ
  Basis Set: (AUG-CC-PVTZ AUX)
    Blend: AUG-CC-PVTZ-JKFIT + DEF2-UNIVERSAL-JKFIT

    Orbital Energies [Eh]
    ---------------------

    Doubly Occupied:

       1A    -20.550631     2A    -20.544370     3A    -20.543029
       4A    -20.540643     5A    -20.534269     6A    -20.524927
       7A     -1.335217     8A     -1.327976     9A     -1.321506
      10A     -1.316395    11A     -1.314148    12A     -1.309130
      13A     -0.699857    14A     -0.698654    15A     -0.692655
      16A     -0.686946    17A     -0.684540    18A     -0.672767
      19A     -0.562297    20A     -0.558628    21A     -0.551915
      22A     -0.550653    23A     -0.543993    24A     -0.535809
      25A     -0.493275    26A     -0.483964    27A     -0.480464
      28A     -0.479730    29A     -0.475395    30A     -0.467615

  @DF-RHF Final Energy:  -456.33254241751985

   => Energetics <=

    Nuclear Repulsion Energy =            247.4696923907104917
    One-Electron Energy =               -1124.6416603297691381
    Two-Electron Energy =                 420.8394255215387716
    Total Energy =                       -456.3325424175198464
 Dipole X            :          8.7436276           -7.9114121            0.8322155
 Dipole Y            :          3.9346722           -3.5687780            0.3658942
 Dipole Z            :        -16.2754083           17.1298987            0.8544903
 Magnitude           :                                                    1.2476438

    SAPT Results
  --------------------------------------------------------------------------------------------------------
    Electrostatics               -120.73865516 [mEh]     -75.76464997 [kcal/mol]    -316.99929546 [kJ/mol]
      Elst10,r                   -126.01391018 [mEh]     -79.07492247 [kcal/mol]    -330.84947560 [kJ/mol]
      Elst12,r                      5.27525502 [mEh]       3.31027250 [kcal/mol]      13.85018013 [kJ/mol]

    Exchange                       55.29265954 [mEh]      34.69666769 [kcal/mol]     145.17085762 [kJ/mol]
      Exch10                       50.11482422 [mEh]      31.44752698 [kcal/mol]     131.57645287 [kJ/mol]
      Exch10(S^2)                  49.99584428 [mEh]      31.37286593 [kcal/mol]     131.26407106 [kJ/mol]
      Exch11(S^2)                  -0.50656812 [mEh]      -0.31787630 [kcal/mol]      -1.32999442 [kJ/mol]
      Exch12(S^2)                   5.68440344 [mEh]       3.56701701 [kcal/mol]      14.92439916 [kJ/mol]

    Induction                     -32.70100678 [mEh]     -20.52019155 [kcal/mol]     -85.85648146 [kJ/mol]
      Ind20,r                     -61.74340412 [mEh]     -38.74457103 [kcal/mol]    -162.10728518 [kJ/mol]
      Ind22                       -11.16290291 [mEh]      -7.00482733 [kcal/mol]     -29.30819756 [kJ/mol]
      Exch-Ind20,r                 35.26447151 [mEh]      22.12878996 [kcal/mol]      92.58685719 [kJ/mol]
      Exch-Ind22                    6.37564250 [mEh]       4.00077607 [kcal/mol]      16.73924709 [kJ/mol]
      delta HF,r (2)               -1.43481376 [mEh]      -0.90035923 [kcal/mol]      -3.76710300 [kJ/mol]

    Dispersion                    -13.03914744 [mEh]      -8.18218855 [kcal/mol]     -34.23427689 [kJ/mol]
      Disp20                      -15.44406943 [mEh]      -9.69129988 [kcal/mol]     -40.54839869 [kJ/mol]
      Disp21                        2.19172076 [mEh]       1.37532554 [kcal/mol]       5.75436206 [kJ/mol]
      Disp22 (SDQ)                 -0.17414427 [mEh]      -0.10927718 [kcal/mol]      -0.45721572 [kJ/mol]
      Disp22 (T)                   -1.63192062 [mEh]      -1.02404565 [kcal/mol]      -4.28460699 [kJ/mol]
      Est. Disp22 (T)              -1.76141151 [mEh]      -1.10530241 [kcal/mol]      -4.62458529 [kJ/mol]
      Exch-Disp20                   2.14875701 [mEh]       1.34836538 [kcal/mol]       5.64156075 [kJ/mol]

  Total HF                       -103.81283232 [mEh]     -65.14353578 [kcal/mol]    -272.56055372 [kJ/mol]
  Total SAPT0                    -117.10814474 [mEh]     -73.48647028 [kcal/mol]    -307.46739166 [kJ/mol]
  Total SAPT2                    -111.44231482 [mEh]     -69.93110833 [kcal/mol]    -292.59175725 [kJ/mol]
  Total SAPT2+                   -111.18614984 [mEh]     -69.77036238 [kcal/mol]    -291.91919620 [kJ/mol]

  Special recipe for scaled SAPT0 (see Manual):
    Electrostatics sSAPT0        -126.01391018 [mEh]     -79.07492247 [kcal/mol]    -330.84947560 [kJ/mol]
    Exchange sSAPT0                50.11482422 [mEh]      31.44752698 [kcal/mol]     131.57645287 [kJ/mol]
    Induction sSAPT0              -27.66137992 [mEh]     -17.35777795 [kcal/mol]     -72.62494296 [kJ/mol]
    Dispersion sSAPT0             -13.27993507 [mEh]      -8.33328507 [kcal/mol]     -34.86646471 [kJ/mol]
  Total sSAPT0                   -116.84040094 [mEh]     -73.31845851 [kcal/mol]    -306.76443040 [kJ/mol]
  --------------------------------------------------------------------------------------------------------

*** Psi4 exiting successfully. Buy a developer a beer!
