                               Psi4 1.9 release

  ==> Input File <==

--------------------------------------------------------------------------
MEMORY 60 GB

molecule dimer {
1 1
K      0.000000     0.000000     0.000000
--
0 1
O     -2.443974    -0.924940    -0.753874
H     -2.879080    -0.982845    -1.566392
H     -3.075308    -0.759627    -0.078308
O      2.258221     2.031931    -0.252422
H      3.160911     2.340982    -0.304247
H      1.773997     2.842941    -0.220350
O      0.816379    -1.772428    -1.854739
H      0.355731    -1.803103    -2.682501
H      1.790593    -1.660283    -2.009260
O      0.385784    -2.386352     1.285565
H     -0.034250    -3.134856     0.744614
H     -0.166993    -2.412580     2.018828
O      0.888475     0.436632     2.558956
H      0.580862     0.364340     3.467400
H      1.708919     0.935211     2.674296

units ang
no_reorient
no_com
symmetry c1
}

set {
basis        aug-cc-pVTZ
scf_type     df
}

energy("sapt2+")
--------------------------------------------------------------------------

  //              Dimer HF             //
    Molecular point group: c1
  Charge       = 1
  Multiplicity = 1
  Basis Set: AUG-CC-PVTZ
    Blend: AUG-CC-PVTZ
  Basis Set: (AUG-CC-PVTZ AUX)
    Blend: AUG-CC-PVTZ-JKFIT + DEF2-UNIVERSAL-JKFIT
  @DF-RHF Final Energy:  -979.39895423827500
    Total Energy =                       -979.3989542382749960
 Dipole X            :        -35.1321986           34.8738790           -0.2583196
 Dipole Y            :         48.0115850          -47.6042344            0.4073506
 Dipole Z            :        -18.6676927           18.7309049            0.0632122
 Magnitude           :                                                    0.4864764
  //            Monomer A HF           //
    Molecular point group: c1
  Multiplicity = 1
  Basis Set: AUG-CC-PVTZ
    Blend: AUG-CC-PVTZ
  Basis Set: (AUG-CC-PVTZ AUX)
    Blend: AUG-CC-PVTZ-JKFIT + DEF2-UNIVERSAL-JKFIT
  @DF-RHF Final Energy:  -599.01751611658369
    Total Energy =                       -599.0175161165836926
  //            Monomer B HF           //
    Molecular point group: c1

    Geometry (in Angstrom), charge = 0, multiplicity = 1:

       Center              X                  Y                   Z               Mass
    ------------   -----------------  -----------------  -----------------  -----------------
      Gh(K)           0.000000000000     0.000000000000     0.000000000000    38.963706486400
         O           -2.443974000000    -0.924940000000    -0.753874000000    15.994914619570
         H           -2.879080000000    -0.982845000000    -1.566392000000     1.007825032230
         H           -3.075308000000    -0.759627000000    -0.078308000000     1.007825032230
         O            2.258221000000     2.031931000000    -0.252422000000    15.994914619570
         H            3.160911000000     2.340982000000    -0.304247000000     1.007825032230
         H            1.773997000000     2.842941000000    -0.220350000000     1.007825032230
         O            0.816379000000    -1.772428000000    -1.854739000000    15.994914619570
         H            0.355731000000    -1.803103000000    -2.682501000000     1.007825032230
         H            1.790593000000    -1.660283000000    -2.009260000000     1.007825032230
         O            0.385784000000    -2.386352000000     1.285565000000    15.994914619570
         H           -0.034250000000    -3.134856000000     0.744614000000     1.007825032230
         H           -0.166993000000    -2.412580000000     2.018828000000     1.007825032230
         O            0.888475000000     0.436632000000     2.558956000000    15.994914619570
         H            0.580862000000     0.364340000000     3.467400000000     1.007825032230
         H            1.708919000000     0.935211000000     2.674296000000     1.007825032230

  Charge       = 0
  Multiplicity = 1
  Basis Set: AUG-CC-PVTZ
    Blend: AUG-CC-PVTZ
  Basis Set: (AUG-CC-PVTZ AUX)
    Blend: AUG-CC-PVTZ-JKFIT + DEF2-UNIVERSAL-JKFIT

    Orbital Energies [Eh]
    ---------------------

    Doubly Occupied:

       1A    -20.552811     2A    -20.542077     3A    -20.539964
       4A    -20.533873     5A    -20.521673     6A     -1.345689
       7A     -1.344808     8A     -1.322416     9A     -1.310770
      10A     -1.305766    11A     -0.723224    12A     -0.702199
      13A     -0.688139    14A     -0.678193    15A     -0.653587
      16A     -0.575129    17A     -0.560595    18A     -0.559141
      19A     -0.541918    20A     -0.534923    21A     -0.497326
      22A     -0.492443    23A     -0.479628    24A     -0.474016
      25A     -0.460891

  @DF-RHF Final Energy:  -380.27964034764994

   => Energetics <=

    Nuclear Repulsion Energy =            172.0267939955043062
    One-Electron Energy =                -868.7304668035136501
    Two-Electron Energy =                 316.4240324603593422
    Total Energy =                       -380.2796403476499449
 Dipole X            :        -35.2608248           34.8738790           -0.3869458
 Dipole Y            :         48.3310152          -47.6042344            0.7267808
 Dipole Z            :        -18.7489168           18.7309049           -0.0180119
 Magnitude           :                                                    0.8235665

    SAPT Results
  --------------------------------------------------------------------------------------------------------
    Electrostatics               -106.76471702 [mEh]     -66.99587140 [kcal/mol]    -280.31072592 [kJ/mol]
      Elst10,r                   -111.80366795 [mEh]     -70.15786084 [kcal/mol]    -293.54048976 [kJ/mol]
      Elst12,r                      5.03895093 [mEh]       3.16198945 [kcal/mol]      13.22976384 [kJ/mol]

    Exchange                       36.41074059 [mEh]      22.84808467 [kcal/mol]      95.59638624 [kJ/mol]
      Exch10                       32.65877968 [mEh]      20.49369365 [kcal/mol]      85.74561424 [kJ/mol]
      Exch10(S^2)                  32.57081349 [mEh]      20.43849404 [kcal/mol]      85.51465905 [kJ/mol]
      Exch11(S^2)                  -0.19205464 [mEh]      -0.12051610 [kcal/mol]      -0.50423938 [kJ/mol]
      Exch12(S^2)                   3.94401554 [mEh]       2.47490712 [kcal/mol]      10.35501137 [kJ/mol]

    Induction                     -26.35045950 [mEh]     -16.53516298 [kcal/mol]     -69.18312189 [kJ/mol]
      Ind20,r                     -45.31480684 [mEh]     -28.43547059 [kcal/mol]    -118.97400896 [kJ/mol]
      Ind22                        -7.82728661 [mEh]      -4.91169650 [kcal/mol]     -20.55053816 [kJ/mol]
      Exch-Ind20,r                 23.90830320 [mEh]      15.00268676 [kcal/mol]      62.77124139 [kJ/mol]
      Exch-Ind22                    4.12971288 [mEh]       2.59143396 [kcal/mol]      10.84255967 [kJ/mol]
      delta HF,r (2)               -1.24638213 [mEh]      -0.78211660 [kcal/mol]      -3.27237584 [kJ/mol]

    Dispersion                     -9.19021560 [mEh]      -5.76694736 [kcal/mol]     -24.12890774 [kJ/mol]
      Disp20                      -10.69321840 [mEh]      -6.71009585 [kcal/mol]     -28.07504104 [kJ/mol]
      Disp21                        1.50276521 [mEh]       0.94299941 [kcal/mol]       3.94550952 [kJ/mol]
      Disp22 (SDQ)                 -0.14000153 [mEh]      -0.08785229 [kcal/mol]      -0.36757396 [kJ/mol]
      Disp22 (T)                   -1.11065565 [mEh]      -0.69694694 [kcal/mol]      -2.91602600 [kJ/mol]
      Est. Disp22 (T)              -1.19962757 [mEh]      -0.75277766 [kcal/mol]      -3.14962175 [kJ/mol]
      Exch-Disp20                   1.33986668 [mEh]       0.84077904 [kcal/mol]       3.51781949 [kJ/mol]

  Total HF                       -101.79777404 [mEh]     -63.87906762 [kcal/mol]    -267.27001892 [kJ/mol]
  Total SAPT0                    -111.15112576 [mEh]     -69.74838443 [kcal/mol]    -291.82724047 [kJ/mol]
  Total SAPT2                    -106.05778765 [mEh]     -66.55226652 [kcal/mol]    -278.45468312 [kJ/mol]
  Total SAPT2+                   -105.89465154 [mEh]     -66.44989706 [kcal/mol]    -278.02636931 [kJ/mol]

  Special recipe for scaled SAPT0 (see Manual):
    Electrostatics sSAPT0        -111.80366795 [mEh]     -70.15786084 [kcal/mol]    -293.54048976 [kJ/mol]
    Exchange sSAPT0                32.65877968 [mEh]      20.49369365 [kcal/mol]      85.74561424 [kJ/mol]
    Induction sSAPT0              -22.45864984 [mEh]     -14.09301554 [kcal/mol]     -58.96517703 [kJ/mol]
    Dispersion sSAPT0              -9.34246637 [mEh]      -5.86248615 [kcal/mol]     -24.52864207 [kJ/mol]
  Total sSAPT0                   -110.94600447 [mEh]     -69.61966889 [kcal/mol]    -291.28869462 [kJ/mol]
  --------------------------------------------------------------------------------------------------------

*** Psi4 exiting successfully. Buy a developer a beer!
