                               Psi4 1.9 release

  ==> Input File <==

--------------------------------------------------------------------------
MEMORY 60 GB

molecule dimer {
1 1
K      0.000000     0.000000     0.000000
--
0 1
O      1.222057     2.629778    -0.942752
H      2.033084     2.278229    -1.374565
H      1.530903     3.044932    -0.145782
O      1.418192     0.063385     2.461153
H      1.334880    -0.883214     2.511753
H      2.380928     0.237406     2.503441
O     -1.342006    -0.254400    -2.039800
H     -1.599213     0.440439    -2.740621
H     -1.348686    -1.184654    -2.470101
O     -2.518656    -0.508365     1.268620
H     -3.306194    -0.896204     0.868423
H     -2.210245    -1.248498     1.818523
O     -0.399968    -2.741441     0.315356
H     -0.976791    -3.128720     0.992102
H      0.291629    -3.407348     0.234052
O      2.429193    -0.853860    -1.110769
H      2.124910    -1.390245    -1.851640
H      2.833848    -0.050918    -1.580884

units ang
no_reorient
no_com
symmetry c1
}

set {
basis        aug-cc-pVTZ
scf_type     df
}

energy("sapt2+")
--------------------------------------------------------------------------

  //              Dimer HF             //
    Molecular point group: c1
  Charge       = 1
  Multiplicity = 1
  Basis Set: AUG-CC-PVTZ
    Blend: AUG-CC-PVTZ
  Basis Set: (AUG-CC-PVTZ AUX)
    Blend: AUG-CC-PVTZ-JKFIT + DEF2-UNIVERSAL-JKFIT
  @DF-RHF Final Energy: -1055.44312866604332
    Total Energy =                      -1055.4431286660433216
 Dipole X            :        -17.1365588           18.0649295            0.9283707
 Dipole Y            :         34.8543392          -36.8648132           -2.0104740
 Dipole Z            :          2.2109855           -3.0629342           -0.8519487
 Magnitude           :                                                    2.3726977
  //            Monomer A HF           //
    Molecular point group: c1
  Multiplicity = 1
  Basis Set: AUG-CC-PVTZ
    Blend: AUG-CC-PVTZ
  Basis Set: (AUG-CC-PVTZ AUX)
    Blend: AUG-CC-PVTZ-JKFIT + DEF2-UNIVERSAL-JKFIT
  @DF-RHF Final Energy:  -599.01751721182302
    Total Energy =                       -599.0175172118231330
  //            Monomer B HF           //
    Molecular point group: c1

    Geometry (in Angstrom), charge = 0, multiplicity = 1:

       Center              X                  Y                   Z               Mass
    ------------   -----------------  -----------------  -----------------  -----------------
      Gh(K)           0.000000000000     0.000000000000     0.000000000000    38.963706486400
         O            1.222057000000     2.629778000000    -0.942752000000    15.994914619570
         H            2.033084000000     2.278229000000    -1.374565000000     1.007825032230
         H            1.530903000000     3.044932000000    -0.145782000000     1.007825032230
         O            1.418192000000     0.063385000000     2.461153000000    15.994914619570
         H            1.334880000000    -0.883214000000     2.511753000000     1.007825032230
         H            2.380928000000     0.237406000000     2.503441000000     1.007825032230
         O           -1.342006000000    -0.254400000000    -2.039800000000    15.994914619570
         H           -1.599213000000     0.440439000000    -2.740621000000     1.007825032230
         H           -1.348686000000    -1.184654000000    -2.470101000000     1.007825032230
         O           -2.518656000000    -0.508365000000     1.268620000000    15.994914619570
         H           -3.306194000000    -0.896204000000     0.868423000000     1.007825032230
         H           -2.210245000000    -1.248498000000     1.818523000000     1.007825032230
         O           -0.399968000000    -2.741441000000     0.315356000000    15.994914619570
         H           -0.976791000000    -3.128720000000     0.992102000000     1.007825032230
         H            0.291629000000    -3.407348000000     0.234052000000     1.007825032230
         O            2.429193000000    -0.853860000000    -1.110769000000    15.994914619570
         H            2.124910000000    -1.390245000000    -1.851640000000     1.007825032230
         H            2.833848000000    -0.050918000000    -1.580884000000     1.007825032230

  Charge       = 0
  Multiplicity = 1
  Basis Set: AUG-CC-PVTZ
    Blend: AUG-CC-PVTZ
  Basis Set: (AUG-CC-PVTZ AUX)
    Blend: AUG-CC-PVTZ-JKFIT + DEF2-UNIVERSAL-JKFIT

    Orbital Energies [Eh]
    ---------------------

    Doubly Occupied:

       1A    -20.566223     2A    -20.561053     3A    -20.547745
       4A    -20.546309     5A    -20.540838     6A    -20.539130
       7A     -1.346958     8A     -1.327905     9A     -1.326690
      10A     -1.321617    11A     -1.318732    12A     -1.289420
      13A     -0.705888    14A     -0.693954    15A     -0.687629
      16A     -0.683399    17A     -0.672200    18A     -0.660894
      19A     -0.581455    20A     -0.570318    21A     -0.560408
      22A     -0.556835    23A     -0.553980    24A     -0.530599
      25A     -0.506239    26A     -0.496692    27A     -0.486448
      28A     -0.481060    29A     -0.478475    30A     -0.471600

  @DF-RHF Final Energy:  -456.32272805190024

   => Energetics <=

    Nuclear Repulsion Energy =            242.1072098863959354
    One-Electron Energy =               -1113.6384778756046217
    Two-Electron Energy =                 415.2085399373084442
    Total Energy =                       -456.3227280519002420
 Dipole X            :        -17.1572979           18.0649295            0.9076316
 Dipole Y            :         35.0695542          -36.8648132           -1.7952590
 Dipole Z            :          2.3439975           -3.0629342           -0.7189367
 Magnitude           :                                                    2.1362631

    SAPT Results
  --------------------------------------------------------------------------------------------------------
    Electrostatics               -117.06959366 [mEh]     -73.46227911 [kcal/mol]    -307.36617581 [kJ/mol]
      Elst10,r                   -121.89055873 [mEh]     -76.48748037 [kcal/mol]    -320.02361786 [kJ/mol]
      Elst12,r                      4.82096507 [mEh]       3.02520125 [kcal/mol]      12.65744205 [kJ/mol]

    Exchange                       50.12921834 [mEh]      31.45655942 [kcal/mol]     131.61424462 [kJ/mol]
      Exch10                       45.37514811 [mEh]      28.47333531 [kcal/mol]     119.13243496 [kJ/mol]
      Exch10(S^2)                  45.17550756 [mEh]      28.34805898 [kcal/mol]     118.60827877 [kJ/mol]
      Exch11(S^2)                  -0.37483008 [mEh]      -0.23520943 [kcal/mol]      -0.98411625 [kJ/mol]
      Exch12(S^2)                   5.12890031 [mEh]       3.21843353 [kcal/mol]      13.46592591 [kJ/mol]

    Induction                     -30.85174794 [mEh]     -19.35976412 [kcal/mol]     -81.00125307 [kJ/mol]
      Ind20,r                     -58.40753013 [mEh]     -36.65127849 [kcal/mol]    -153.34894922 [kJ/mol]
      Ind22                       -10.43095587 [mEh]      -6.54552363 [kcal/mol]     -27.38647086 [kJ/mol]
      Exch-Ind20,r                 33.30099809 [mEh]      20.89669179 [kcal/mol]      87.43175844 [kJ/mol]
      Exch-Ind22                    5.94719963 [mEh]       3.73192411 [kcal/mol]      15.61437047 [kJ/mol]
      delta HF,r (2)               -1.26145967 [mEh]      -0.79157789 [kcal/mol]      -3.31196190 [kJ/mol]

    Dispersion                    -11.74495794 [mEh]      -7.37007238 [kcal/mol]     -30.83638282 [kJ/mol]
      Disp20                      -13.81914053 [mEh]      -8.67164160 [kcal/mol]     -36.28214846 [kJ/mol]
      Disp21                        1.97261596 [mEh]       1.23783520 [kcal/mol]       5.17910248 [kJ/mol]
      Disp22 (SDQ)                 -0.18228751 [mEh]      -0.11438714 [kcal/mol]      -0.47859580 [kJ/mol]
      Disp22 (T)                   -1.47427843 [mEh]      -0.92512368 [kcal/mol]      -3.87071749 [kJ/mol]
      Est. Disp22 (T)              -1.59289335 [mEh]      -0.99955567 [kcal/mol]      -4.18214092 [kJ/mol]
      Exch-Disp20                   1.87674750 [mEh]       1.17767684 [kcal/mol]       4.92739988 [kJ/mol]

  Total HF                       -102.88340232 [mEh]     -64.56030965 [kcal/mol]    -270.12033558 [kJ/mol]
  Total SAPT0                    -114.82579535 [mEh]     -72.05427442 [kcal/mol]    -301.47508416 [kJ/mol]
  Total SAPT2                    -109.73451630 [mEh]     -68.85944858 [kcal/mol]    -288.10793284 [kJ/mol]
  Total SAPT2+                   -109.53708120 [mEh]     -68.73555619 [kcal/mol]    -287.58956708 [kJ/mol]

  Special recipe for scaled SAPT0 (see Manual):
    Electrostatics sSAPT0        -121.89055873 [mEh]     -76.48748037 [kcal/mol]    -320.02361786 [kJ/mol]
    Exchange sSAPT0                45.37514811 [mEh]      28.47333531 [kcal/mol]     119.13243496 [kJ/mol]
    Induction sSAPT0              -25.92454437 [mEh]     -16.26789719 [kcal/mol]     -68.06488186 [kJ/mol]
    Dispersion sSAPT0             -11.91740163 [mEh]      -7.47828242 [kcal/mol]     -31.28913366 [kJ/mol]
  Total sSAPT0                   -114.35735661 [mEh]     -71.76032467 [kcal/mol]    -300.24519842 [kJ/mol]
  --------------------------------------------------------------------------------------------------------

*** Psi4 exiting successfully. Buy a developer a beer!
