                               Psi4 1.9 release

  ==> Input File <==

--------------------------------------------------------------------------
MEMORY 60 GB

molecule dimer {
1 1
K      0.000000     0.000000     0.000000
--
0 1
O     -0.031652     2.144978    -1.608259
H      0.277586     1.427590    -2.192862
H     -1.017221     2.264700    -1.738852
O     -0.788931    -0.740656     2.321277
H     -1.501247    -0.231443     2.705598
H     -0.076222    -0.711789     2.986251
O     -1.974576    -1.628499    -1.490287
H     -2.671600    -1.230877    -0.969768
H     -2.022568    -2.568609    -1.304728
O     -0.874063     1.982276     2.140067
H     -1.510546     2.328273     1.516840
H     -1.133805     2.374863     2.943937
O      2.540164     1.201918     0.024099
H      2.914567     1.138412     0.906595
H      2.914729     2.003474    -0.363718

units ang
no_reorient
no_com
symmetry c1
}

set {
basis        aug-cc-pVTZ
scf_type     df
}

energy("sapt2+")
--------------------------------------------------------------------------

  //              Dimer HF             //
    Molecular point group: c1
  Charge       = 1
  Multiplicity = 1
  Basis Set: AUG-CC-PVTZ
    Blend: AUG-CC-PVTZ
  Basis Set: (AUG-CC-PVTZ AUX)
    Blend: AUG-CC-PVTZ-JKFIT + DEF2-UNIVERSAL-JKFIT
  @DF-RHF Final Energy:  -979.37856990251066
    Total Energy =                       -979.3785699025106624
 Dipole X            :         23.2483862          -24.2995933           -1.0512071
 Dipole Y            :        -56.7152618           57.5888934            0.8736317
 Dipole Z            :        -28.1632261           29.4503782            1.2871522
 Magnitude           :                                                    1.8775061
  //            Monomer A HF           //
    Molecular point group: c1
  Multiplicity = 1
  Basis Set: AUG-CC-PVTZ
    Blend: AUG-CC-PVTZ
  Basis Set: (AUG-CC-PVTZ AUX)
    Blend: AUG-CC-PVTZ-JKFIT + DEF2-UNIVERSAL-JKFIT
  @DF-RHF Final Energy:  -599.01751617864920
    Total Energy =                       -599.0175161786492026
  //            Monomer B HF           //
    Molecular point group: c1

    Geometry (in Angstrom), charge = 0, multiplicity = 1:

       Center              X                  Y                   Z               Mass
    ------------   -----------------  -----------------  -----------------  -----------------
      Gh(K)           0.000000000000     0.000000000000     0.000000000000    38.963706486400
         O           -0.031652000000     2.144978000000    -1.608259000000    15.994914619570
         H            0.277586000000     1.427590000000    -2.192862000000     1.007825032230
         H           -1.017221000000     2.264700000000    -1.738852000000     1.007825032230
         O           -0.788931000000    -0.740656000000     2.321277000000    15.994914619570
         H           -1.501247000000    -0.231443000000     2.705598000000     1.007825032230
         H           -0.076222000000    -0.711789000000     2.986251000000     1.007825032230
         O           -1.974576000000    -1.628499000000    -1.490287000000    15.994914619570
         H           -2.671600000000    -1.230877000000    -0.969768000000     1.007825032230
         H           -2.022568000000    -2.568609000000    -1.304728000000     1.007825032230
         O           -0.874063000000     1.982276000000     2.140067000000    15.994914619570
         H           -1.510546000000     2.328273000000     1.516840000000     1.007825032230
         H           -1.133805000000     2.374863000000     2.943937000000     1.007825032230
         O            2.540164000000     1.201918000000     0.024099000000    15.994914619570
         H            2.914567000000     1.138412000000     0.906595000000     1.007825032230
         H            2.914729000000     2.003474000000    -0.363718000000     1.007825032230

  Charge       = 0
  Multiplicity = 1
  Basis Set: AUG-CC-PVTZ
    Blend: AUG-CC-PVTZ
  Basis Set: (AUG-CC-PVTZ AUX)
    Blend: AUG-CC-PVTZ-JKFIT + DEF2-UNIVERSAL-JKFIT

    Orbital Energies [Eh]
    ---------------------

    Doubly Occupied:

       1A    -20.557906     2A    -20.552905     3A    -20.545958
       4A    -20.540356     5A    -20.536576     6A     -1.357462
       7A     -1.338647     8A     -1.322453     9A     -1.318876
      10A     -1.310877    11A     -0.716493    12A     -0.705597
      13A     -0.690921    14A     -0.685677    15A     -0.683859
      16A     -0.586361    17A     -0.569796    18A     -0.555010
      19A     -0.553905    20A     -0.545723    21A     -0.511274
      22A     -0.495868    23A     -0.484617    24A     -0.478467
      25A     -0.469961

  @DF-RHF Final Energy:  -380.28552856243357

   => Energetics <=

    Nuclear Repulsion Energy =            172.8422413786714174
    One-Electron Energy =                -870.0244431127471216
    Two-Electron Energy =                 316.8966731716421918
    Total Energy =                       -380.2855285624335693
 Dipole X            :         23.3318561          -24.2995933           -0.9677372
 Dipole Y            :        -56.9826073           57.5888934            0.6062861
 Dipole Z            :        -28.3521796           29.4503782            1.0981986
 Magnitude           :                                                    1.5843416

    SAPT Results
  --------------------------------------------------------------------------------------------------------
    Electrostatics                -89.44960238 [mEh]     -56.13047292 [kcal/mol]    -234.84989868 [kJ/mol]
      Elst10,r                    -91.74240590 [mEh]     -57.56922885 [kcal/mol]    -240.86965352 [kJ/mol]
      Elst12,r                      2.29280353 [mEh]       1.43875594 [kcal/mol]       6.01975483 [kJ/mol]

    Exchange                       43.29299880 [mEh]      27.16676689 [kcal/mol]     113.66575269 [kJ/mol]
      Exch10                       38.48770489 [mEh]      24.15139944 [kcal/mol]     101.04945527 [kJ/mol]
      Exch10(S^2)                  38.34525414 [mEh]      24.06201025 [kcal/mol]     100.67545088 [kJ/mol]
      Exch11(S^2)                  -0.26964774 [mEh]      -0.16920651 [kcal/mol]      -0.70796003 [kJ/mol]
      Exch12(S^2)                   5.07494164 [mEh]       3.18457396 [kcal/mol]      13.32425745 [kJ/mol]

    Induction                     -26.41429903 [mEh]     -16.57522288 [kcal/mol]     -69.35073254 [kJ/mol]
      Ind20,r                     -52.94396016 [mEh]     -33.22283658 [kcal/mol]    -139.00434824 [kJ/mol]
      Ind22                       -10.41669818 [mEh]      -6.53657679 [kcal/mol]     -27.34903729 [kJ/mol]
      Exch-Ind20,r                 31.88246615 [mEh]      20.00654955 [kcal/mol]      83.70740334 [kJ/mol]
      Exch-Ind22                    6.27285957 [mEh]       3.93627881 [kcal/mol]      16.46939052 [kJ/mol]
      delta HF,r (2)               -1.20896641 [mEh]      -0.75863787 [kcal/mol]      -3.17414086 [kJ/mol]

    Dispersion                     -9.69138464 [mEh]      -6.08143568 [kcal/mol]     -25.44472687 [kJ/mol]
      Disp20                      -11.33826941 [mEh]      -7.11487147 [kcal/mol]     -29.76862223 [kJ/mol]
      Disp21                        1.49960636 [mEh]       0.94101720 [kcal/mol]       3.93721594 [kJ/mol]
      Disp22 (SDQ)                 -0.14472604 [mEh]      -0.09081696 [kcal/mol]      -0.37997816 [kJ/mol]
      Disp22 (T)                   -1.20199520 [mEh]      -0.75426338 [kcal/mol]      -3.15583797 [kJ/mol]
      Est. Disp22 (T)              -1.29962263 [mEh]      -0.81552551 [kcal/mol]      -3.41215874 [kJ/mol]
      Exch-Disp20                   1.59162708 [mEh]       0.99876107 [kcal/mol]       4.17881632 [kJ/mol]

  Total HF                        -75.52516143 [mEh]     -47.39275430 [kcal/mol]    -198.29128401 [kJ/mol]
  Total SAPT0                     -85.27180376 [mEh]     -53.50886470 [kcal/mol]    -223.88108992 [kJ/mol]
  Total SAPT2                     -82.31754493 [mEh]     -51.65503930 [kcal/mol]    -216.12468444 [kJ/mol]
  Total SAPT2+                    -82.26228724 [mEh]     -51.62036458 [kcal/mol]    -215.97960540 [kJ/mol]

  Special recipe for scaled SAPT0 (see Manual):
    Electrostatics sSAPT0         -91.74240590 [mEh]     -57.56922885 [kcal/mol]    -240.86965352 [kJ/mol]
    Exchange sSAPT0                38.48770489 [mEh]      24.15139944 [kcal/mol]     101.04945527 [kJ/mol]
    Induction sSAPT0              -21.91381334 [mEh]     -13.75112548 [kcal/mol]     -57.53470900 [kJ/mol]
    Dispersion sSAPT0              -9.72883790 [mEh]      -6.10493795 [kcal/mol]     -25.54306039 [kJ/mol]
  Total sSAPT0                    -84.89735225 [mEh]     -53.27389284 [kcal/mol]    -222.89796764 [kJ/mol]
  --------------------------------------------------------------------------------------------------------

*** Psi4 exiting successfully. Buy a developer a beer!
