                               Psi4 1.9 release

  ==> Input File <==

--------------------------------------------------------------------------
MEMORY 60 GB

molecule dimer {
1 1
K      0.000000     0.000000     0.000000
--
0 1
O     -0.873977    -0.157326    -2.492460
H     -1.740116    -0.052883    -2.878562
H     -0.273500     0.375994    -3.026061
O      2.608119     0.315616     0.527310
H      3.312820    -0.307262     0.594493
H      2.932642     0.856303    -0.199126
O      0.725977    -2.654096    -0.373484
H      1.317561    -2.978209    -1.023598
H     -0.110315    -3.095978    -0.542861
O     -2.649027    -1.197370     0.324003
H     -2.756447    -1.934451    -0.241219
H     -2.755054    -1.440674     1.244298
O     -1.038712     2.794023    -0.587160
H     -1.259782     2.719630    -1.535356
H     -1.840414     2.377449    -0.164631

units ang
no_reorient
no_com
symmetry c1
}

set {
basis        aug-cc-pVTZ
scf_type     df
}

energy("sapt2+")
--------------------------------------------------------------------------

  //              Dimer HF             //
    Molecular point group: c1
  Charge       = 1
  Multiplicity = 1
  Basis Set: AUG-CC-PVTZ
    Blend: AUG-CC-PVTZ
  Basis Set: (AUG-CC-PVTZ AUX)
    Blend: AUG-CC-PVTZ-JKFIT + DEF2-UNIVERSAL-JKFIT
  @DF-RHF Final Energy:  -979.39186340970014
    Total Energy =                       -979.3918634097001359
 Dipole X            :         24.0538010          -24.5542792           -0.5004783
 Dipole Y            :         18.8914982          -20.1696233           -1.2781251
 Dipole Z            :         52.1136686          -54.0215082           -1.9078396
 Magnitude           :                                                    2.3503051
  //            Monomer A HF           //
    Molecular point group: c1
  Multiplicity = 1
  Basis Set: AUG-CC-PVTZ
    Blend: AUG-CC-PVTZ
  Basis Set: (AUG-CC-PVTZ AUX)
    Blend: AUG-CC-PVTZ-JKFIT + DEF2-UNIVERSAL-JKFIT
  @DF-RHF Final Energy:  -599.01751615777630
    Total Energy =                       -599.0175161577762992
  //            Monomer B HF           //
    Molecular point group: c1

    Geometry (in Angstrom), charge = 0, multiplicity = 1:

       Center              X                  Y                   Z               Mass
    ------------   -----------------  -----------------  -----------------  -----------------
      Gh(K)           0.000000000000     0.000000000000     0.000000000000    38.963706486400
         O           -0.873977000000    -0.157326000000    -2.492460000000    15.994914619570
         H           -1.740116000000    -0.052883000000    -2.878562000000     1.007825032230
         H           -0.273500000000     0.375994000000    -3.026061000000     1.007825032230
         O            2.608119000000     0.315616000000     0.527310000000    15.994914619570
         H            3.312820000000    -0.307262000000     0.594493000000     1.007825032230
         H            2.932642000000     0.856303000000    -0.199126000000     1.007825032230
         O            0.725977000000    -2.654096000000    -0.373484000000    15.994914619570
         H            1.317561000000    -2.978209000000    -1.023598000000     1.007825032230
         H           -0.110315000000    -3.095978000000    -0.542861000000     1.007825032230
         O           -2.649027000000    -1.197370000000     0.324003000000    15.994914619570
         H           -2.756447000000    -1.934451000000    -0.241219000000     1.007825032230
         H           -2.755054000000    -1.440674000000     1.244298000000     1.007825032230
         O           -1.038712000000     2.794023000000    -0.587160000000    15.994914619570
         H           -1.259782000000     2.719630000000    -1.535356000000     1.007825032230
         H           -1.840414000000     2.377449000000    -0.164631000000     1.007825032230

  Charge       = 0
  Multiplicity = 1
  Basis Set: AUG-CC-PVTZ
    Blend: AUG-CC-PVTZ
  Basis Set: (AUG-CC-PVTZ AUX)
    Blend: AUG-CC-PVTZ-JKFIT + DEF2-UNIVERSAL-JKFIT

    Orbital Energies [Eh]
    ---------------------

    Doubly Occupied:

       1A    -20.559231     2A    -20.553876     3A    -20.549442
       4A    -20.544477     5A    -20.542794     6A     -1.346440
       7A     -1.344098     8A     -1.336663     9A     -1.334019
      10A     -1.317041    11A     -0.729563    12A     -0.712826
      13A     -0.704317    14A     -0.685669    15A     -0.672659
      16A     -0.572837    17A     -0.568429    18A     -0.564628
      19A     -0.562073    20A     -0.561496    21A     -0.503833
      22A     -0.500770    23A     -0.489462    24A     -0.485027
      25A     -0.482910

  @DF-RHF Final Energy:  -380.28805964961271

   => Energetics <=

    Nuclear Repulsion Energy =            170.6846978037019653
    One-Electron Energy =                -865.4963493978539191
    Two-Electron Energy =                 314.5235919445392483
    Total Energy =                       -380.2880596496127055
 Dipole X            :         24.0956480          -24.5542792           -0.4586312
 Dipole Y            :         19.0391716          -20.1696233           -1.1304517
 Dipole Z            :         52.4141268          -54.0215082           -1.6073814
 Magnitude           :                                                    2.0179045

    SAPT Results
  --------------------------------------------------------------------------------------------------------
    Electrostatics                -94.46504090 [mEh]     -59.27770810 [kcal/mol]    -248.01793070 [kJ/mol]
      Elst10,r                    -97.63846556 [mEh]     -61.26906215 [kcal/mol]    -256.34975602 [kJ/mol]
      Elst12,r                      3.17342467 [mEh]       1.99135404 [kcal/mol]       8.33182532 [kJ/mol]

    Exchange                       37.02163469 [mEh]      23.23142650 [kcal/mol]      97.20028849 [kJ/mol]
      Exch10                       32.99946062 [mEh]      20.70747417 [kcal/mol]      86.64007192 [kJ/mol]
      Exch10(S^2)                  32.91882951 [mEh]      20.65687739 [kcal/mol]      86.42837498 [kJ/mol]
      Exch11(S^2)                  -0.21569946 [mEh]      -0.13535345 [kcal/mol]      -0.56631885 [kJ/mol]
      Exch12(S^2)                   4.23787353 [mEh]       2.65930579 [kcal/mol]      11.12653542 [kJ/mol]

    Induction                     -25.44699949 [mEh]     -15.96823326 [kcal/mol]     -66.81108795 [kJ/mol]
      Ind20,r                     -45.46955625 [mEh]     -28.53257732 [kcal/mol]    -119.38030349 [kJ/mol]
      Ind22                        -8.36247598 [mEh]      -5.24753290 [kcal/mol]     -21.95567767 [kJ/mol]
      Exch-Ind20,r                 24.81638376 [mEh]      15.57251591 [kcal/mol]      65.15540659 [kJ/mol]
      Exch-Ind22                    4.56407386 [mEh]       2.86399959 [kcal/mol]      11.98297427 [kJ/mol]
      delta HF,r (2)               -0.99542487 [mEh]      -0.62463854 [kcal/mol]      -2.61348765 [kJ/mol]

    Dispersion                     -9.18459340 [mEh]      -5.76341937 [kcal/mol]     -24.11414666 [kJ/mol]
      Disp20                      -10.59672215 [mEh]      -6.64954354 [kcal/mol]     -27.82169016 [kJ/mol]
      Disp21                        1.39528425 [mEh]       0.87555408 [kcal/mol]       3.66331829 [kJ/mol]
      Disp22 (SDQ)                 -0.12805359 [mEh]      -0.08035484 [kcal/mol]      -0.33620466 [kJ/mol]
      Disp22 (T)                   -1.11541942 [mEh]      -0.69993625 [kcal/mol]      -2.92853329 [kJ/mol]
      Est. Disp22 (T)              -1.20616562 [mEh]      -0.75688035 [kcal/mol]      -3.16678740 [kJ/mol]
      Exch-Disp20                   1.35106370 [mEh]       0.84780527 [kcal/mol]       3.54721726 [kJ/mol]

  Total HF                        -86.28760231 [mEh]     -54.14628792 [kcal/mol]    -226.54806866 [kJ/mol]
  Total SAPT0                     -95.53326075 [mEh]     -59.94802618 [kcal/mol]    -250.82254155 [kJ/mol]
  Total SAPT2                     -92.13606413 [mEh]     -57.81625312 [kcal/mol]    -241.90320305 [kJ/mol]
  Total SAPT2+                    -92.07499910 [mEh]     -57.77793423 [kcal/mol]    -241.74287682 [kJ/mol]

  Special recipe for scaled SAPT0 (see Manual):
    Electrostatics sSAPT0         -97.63846556 [mEh]     -61.26906215 [kcal/mol]    -256.34975602 [kJ/mol]
    Exchange sSAPT0                32.99946062 [mEh]      20.70747417 [kcal/mol]      86.64007192 [kJ/mol]
    Induction sSAPT0              -21.46579521 [mEh]     -13.46998986 [kcal/mol]     -56.35843757 [kJ/mol]
    Dispersion sSAPT0              -9.23570625 [mEh]      -5.79549317 [kcal/mol]     -24.24834343 [kJ/mol]
  Total sSAPT0                    -95.34050641 [mEh]     -59.82707101 [kcal/mol]    -250.31646510 [kJ/mol]
  --------------------------------------------------------------------------------------------------------

*** Psi4 exiting successfully. Buy a developer a beer!
