                               Psi4 1.9 release

  ==> Input File <==

--------------------------------------------------------------------------
MEMORY 60 GB

molecule dimer {
1 1
K      0.000000     0.000000     0.000000
--
0 1
O      0.704593     2.672626    -0.531703
H      0.790074     2.936738     0.376140
H      1.317312     3.212929    -0.980840
O     -1.197713    -1.859512    -1.372910
H     -2.150333    -1.931130    -1.386109
H     -0.850128    -2.373238    -2.128254
O      1.635817    -0.907089     2.354190
H      1.210872    -0.164479     2.804010
H      1.161959    -1.673206     2.621161
O     -2.270673     1.300048     0.691387
H     -2.299473     2.002233     0.085889
H     -3.090296     0.843730     0.534633
O     -1.272935     0.782182    -2.104475
H     -2.212545     0.909979    -2.084347
H     -1.080709     0.099361    -2.764455
O     -1.284125    -1.361771     2.068460
H     -2.157382    -1.391156     1.631680
H     -0.988509    -2.220408     2.362835
O      2.443972    -0.416390    -1.317300
H      3.116986    -1.065802    -1.491835
H      2.085578    -0.177653    -2.185105

units ang
no_reorient
no_com
symmetry c1
}

set {
basis        aug-cc-pVTZ
scf_type     df
}

energy("sapt2+")
--------------------------------------------------------------------------

  //              Dimer HF             //
    Molecular point group: c1
  Charge       = 1
  Multiplicity = 1
  Basis Set: AUG-CC-PVTZ
    Blend: AUG-CC-PVTZ
  Basis Set: (AUG-CC-PVTZ AUX)
    Blend: AUG-CC-PVTZ-JKFIT + DEF2-UNIVERSAL-JKFIT
  @DF-RHF Final Energy: -1131.51265382653537
    Total Energy =                      -1131.5126538265353702
 Dipole X            :         26.6621252          -28.4878217           -1.8256965
 Dipole Y            :         -2.2248325            1.3013599           -0.9234726
 Dipole Z            :          6.5851894           -8.1322569           -1.5470675
 Magnitude           :                                                    2.5650316
  //            Monomer A HF           //
    Molecular point group: c1
  Multiplicity = 1
  Basis Set: AUG-CC-PVTZ
    Blend: AUG-CC-PVTZ
  Basis Set: (AUG-CC-PVTZ AUX)
    Blend: AUG-CC-PVTZ-JKFIT + DEF2-UNIVERSAL-JKFIT
  @DF-RHF Final Energy:  -599.01751802573176
    Total Energy =                       -599.0175180257317606
  //            Monomer B HF           //
    Molecular point group: c1

    Geometry (in Angstrom), charge = 0, multiplicity = 1:

       Center              X                  Y                   Z               Mass
    ------------   -----------------  -----------------  -----------------  -----------------
      Gh(K)           0.000000000000     0.000000000000     0.000000000000    38.963706486400
         O            0.704593000000     2.672626000000    -0.531703000000    15.994914619570
         H            0.790074000000     2.936738000000     0.376140000000     1.007825032230
         H            1.317312000000     3.212929000000    -0.980840000000     1.007825032230
         O           -1.197713000000    -1.859512000000    -1.372910000000    15.994914619570
         H           -2.150333000000    -1.931130000000    -1.386109000000     1.007825032230
         H           -0.850128000000    -2.373238000000    -2.128254000000     1.007825032230
         O            1.635817000000    -0.907089000000     2.354190000000    15.994914619570
         H            1.210872000000    -0.164479000000     2.804010000000     1.007825032230
         H            1.161959000000    -1.673206000000     2.621161000000     1.007825032230
         O           -2.270673000000     1.300048000000     0.691387000000    15.994914619570
         H           -2.299473000000     2.002233000000     0.085889000000     1.007825032230
         H           -3.090296000000     0.843730000000     0.534633000000     1.007825032230
         O           -1.272935000000     0.782182000000    -2.104475000000    15.994914619570
         H           -2.212545000000     0.909979000000    -2.084347000000     1.007825032230
         H           -1.080709000000     0.099361000000    -2.764455000000     1.007825032230
         O           -1.284125000000    -1.361771000000     2.068460000000    15.994914619570
         H           -2.157382000000    -1.391156000000     1.631680000000     1.007825032230
         H           -0.988509000000    -2.220408000000     2.362835000000     1.007825032230
         O            2.443972000000    -0.416390000000    -1.317300000000    15.994914619570
         H            3.116986000000    -1.065802000000    -1.491835000000     1.007825032230
         H            2.085578000000    -0.177653000000    -2.185105000000     1.007825032230

  Charge       = 0
  Multiplicity = 1
  Basis Set: AUG-CC-PVTZ
    Blend: AUG-CC-PVTZ
  Basis Set: (AUG-CC-PVTZ AUX)
    Blend: AUG-CC-PVTZ-JKFIT + DEF2-UNIVERSAL-JKFIT

    Orbital Energies [Eh]
    ---------------------

    Doubly Occupied:

       1A    -20.558100     2A    -20.542649     3A    -20.540072
       4A    -20.532823     5A    -20.532287     6A    -20.527195
       7A    -20.519949     8A     -1.341769     9A     -1.340387
      10A     -1.325887    11A     -1.323282    12A     -1.318717
      13A     -1.316596    14A     -1.309173    15A     -0.713862
      16A     -0.711316    17A     -0.701444    18A     -0.693298
      19A     -0.688607    20A     -0.682492    21A     -0.677456
      22A     -0.567074    23A     -0.566602    24A     -0.558141
      25A     -0.550003    26A     -0.545030    27A     -0.538146
      28A     -0.532283    29A     -0.512057    30A     -0.489535
      31A     -0.483270    32A     -0.475765    33A     -0.472723
      34A     -0.462069    35A     -0.461773

  @DF-RHF Final Energy:  -532.38302681698076

   => Energetics <=

    Nuclear Repulsion Energy =            339.8486607175170207
    One-Electron Energy =               -1414.2396864999604986
    Two-Electron Energy =                 542.0079989654626615
    Total Energy =                       -532.3830268169807596
 Dipole X            :         26.8621947          -28.4878217           -1.6256270
 Dipole Y            :         -2.1876563            1.3013599           -0.8862964
 Dipole Z            :          6.7367605           -8.1322569           -1.3954963
 Magnitude           :                                                    2.3185328

    SAPT Results
  --------------------------------------------------------------------------------------------------------
    Electrostatics               -126.90081512 [mEh]     -79.63146372 [kcal/mol]    -333.17804421 [kJ/mol]
      Elst10,r                   -132.76050524 [mEh]     -83.30847478 [kcal/mol]    -348.56265848 [kJ/mol]
      Elst12,r                      5.85969011 [mEh]       3.67701106 [kcal/mol]      15.38461428 [kJ/mol]

    Exchange                       55.84722449 [mEh]      35.04466245 [kcal/mol]     146.62686769 [kJ/mol]
      Exch10                       50.52217209 [mEh]      31.70314162 [kcal/mol]     132.64594456 [kJ/mol]
      Exch10(S^2)                  50.34636083 [mEh]      31.59281839 [kcal/mol]     132.18435214 [kJ/mol]
      Exch11(S^2)                  -0.58908017 [mEh]      -0.36965339 [kcal/mol]      -1.54662977 [kJ/mol]
      Exch12(S^2)                   5.91413256 [mEh]       3.71117421 [kcal/mol]      15.52755291 [kJ/mol]

    Induction                     -35.08613504 [mEh]     -22.01688214 [kcal/mol]     -92.11863487 [kJ/mol]
      Ind20,r                     -62.17707560 [mEh]     -39.01670399 [kcal/mol]    -163.24588950 [kJ/mol]
      Ind22                       -11.56895090 [mEh]      -7.25962629 [kcal/mol]     -30.37427641 [kJ/mol]
      Exch-Ind20,r                 34.14656803 [mEh]      21.42729494 [kcal/mol]      89.65180202 [kJ/mol]
      Exch-Ind22                    6.35346653 [mEh]       3.98686044 [kcal/mol]      16.68102409 [kJ/mol]
      delta HF,r (2)               -1.84014311 [mEh]      -1.15470723 [kcal/mol]      -4.83129506 [kJ/mol]

    Dispersion                    -14.12165503 [mEh]      -8.86147232 [kcal/mol]     -37.07640019 [kJ/mol]
      Disp20                      -16.64521438 [mEh]     -10.44502972 [kcal/mol]     -43.70200433 [kJ/mol]
      Disp21                        2.47195116 [mEh]       1.55117277 [kcal/mol]       6.49010688 [kJ/mol]
      Disp22 (SDQ)                 -0.22738486 [mEh]      -0.14268616 [kcal/mol]      -0.59699887 [kJ/mol]
      Disp22 (T)                   -1.78452630 [mEh]      -1.11980716 [kcal/mol]      -4.68527314 [kJ/mol]
      Est. Disp22 (T)              -1.91764999 [mEh]      -1.20334354 [kcal/mol]      -5.03478935 [kJ/mol]
      Exch-Disp20                   2.19664303 [mEh]       1.37841431 [kcal/mol]       5.76728549 [kJ/mol]

  Total HF                       -112.10898382 [mEh]     -70.34944944 [kcal/mol]    -294.34209648 [kJ/mol]
  Total SAPT0                    -126.55755517 [mEh]     -79.41606485 [kcal/mol]    -332.27681532 [kJ/mol]
  Total SAPT2                    -120.58829703 [mEh]     -75.67029881 [kcal/mol]    -316.60453023 [kJ/mol]
  Total SAPT2+                   -120.26138072 [mEh]     -75.46515573 [kcal/mol]    -315.74621157 [kJ/mol]

  Special recipe for scaled SAPT0 (see Manual):
    Electrostatics sSAPT0        -132.76050524 [mEh]     -83.30847478 [kcal/mol]    -348.56265848 [kJ/mol]
    Exchange sSAPT0                50.52217209 [mEh]      31.70314162 [kcal/mol]     132.64594456 [kJ/mol]
    Induction sSAPT0              -29.51167699 [mEh]     -18.51885690 [kcal/mol]     -77.48289725 [kJ/mol]
    Dispersion sSAPT0             -14.42547863 [mEh]      -9.05212450 [kcal/mol]     -37.87408892 [kJ/mol]
  Total sSAPT0                   -126.17548876 [mEh]     -79.17631456 [kcal/mol]    -331.27370010 [kJ/mol]
  --------------------------------------------------------------------------------------------------------

*** Psi4 exiting successfully. Buy a developer a beer!
