                               Psi4 1.9 release

  ==> Input File <==

--------------------------------------------------------------------------
MEMORY 60 GB

molecule dimer {
1 1
K      0.000000     0.000000     0.000000
--
0 1
O     -1.153594    -0.720309    -2.614003
H     -0.939565    -1.499011    -3.168115
H     -1.428502    -0.069507    -3.340308
O      0.490839     2.044895    -1.779473
H      0.093009     2.075515    -2.632645
H      1.033118     2.817953    -1.735977
O      0.208785    -2.782335    -0.500750
H      0.323043    -3.505662     0.135402
H     -0.529939    -3.016266    -1.123982
O      2.316956    -0.886052     1.337491
H      2.440257    -0.662489     2.291396
H      3.000342    -0.491984     0.781631
O     -2.584382     0.759511     0.285931
H     -3.046319     0.066787    -0.119632
H     -2.689115     0.611750     1.240907
O     -0.643833    -1.535240     2.409017
H     -0.768431    -2.498004     2.659473
H      0.031223    -1.193681     2.975804

units ang
no_reorient
no_com
symmetry c1
}

set {
basis        aug-cc-pVTZ
scf_type     df
}

energy("sapt2+")
--------------------------------------------------------------------------

  //              Dimer HF             //
    Molecular point group: c1
  Charge       = 1
  Multiplicity = 1
  Basis Set: AUG-CC-PVTZ
    Blend: AUG-CC-PVTZ
  Basis Set: (AUG-CC-PVTZ AUX)
    Blend: AUG-CC-PVTZ-JKFIT + DEF2-UNIVERSAL-JKFIT
  @DF-RHF Final Energy: -1055.45683473522831
    Total Energy =                      -1055.4568347352283126
 Dipole X            :         25.4719363          -25.3274531            0.1444832
 Dipole Y            :         60.1497916          -61.0775339           -0.9277423
 Dipole Z            :         16.5849416          -16.8759006           -0.2909590
 Magnitude           :                                                    0.9829742
  //            Monomer A HF           //
    Molecular point group: c1
  Multiplicity = 1
  Basis Set: AUG-CC-PVTZ
    Blend: AUG-CC-PVTZ
  Basis Set: (AUG-CC-PVTZ AUX)
    Blend: AUG-CC-PVTZ-JKFIT + DEF2-UNIVERSAL-JKFIT
  @DF-RHF Final Energy:  -599.01751680068128
    Total Energy =                       -599.0175168006812783
  //            Monomer B HF           //
    Molecular point group: c1

    Geometry (in Angstrom), charge = 0, multiplicity = 1:

       Center              X                  Y                   Z               Mass
    ------------   -----------------  -----------------  -----------------  -----------------
      Gh(K)           0.000000000000     0.000000000000     0.000000000000    38.963706486400
         O           -1.153594000000    -0.720309000000    -2.614003000000    15.994914619570
         H           -0.939565000000    -1.499011000000    -3.168115000000     1.007825032230
         H           -1.428502000000    -0.069507000000    -3.340308000000     1.007825032230
         O            0.490839000000     2.044895000000    -1.779473000000    15.994914619570
         H            0.093009000000     2.075515000000    -2.632645000000     1.007825032230
         H            1.033118000000     2.817953000000    -1.735977000000     1.007825032230
         O            0.208785000000    -2.782335000000    -0.500750000000    15.994914619570
         H            0.323043000000    -3.505662000000     0.135402000000     1.007825032230
         H           -0.529939000000    -3.016266000000    -1.123982000000     1.007825032230
         O            2.316956000000    -0.886052000000     1.337491000000    15.994914619570
         H            2.440257000000    -0.662489000000     2.291396000000     1.007825032230
         H            3.000342000000    -0.491984000000     0.781631000000     1.007825032230
         O           -2.584382000000     0.759511000000     0.285931000000    15.994914619570
         H           -3.046319000000     0.066787000000    -0.119632000000     1.007825032230
         H           -2.689115000000     0.611750000000     1.240907000000     1.007825032230
         O           -0.643833000000    -1.535240000000     2.409017000000    15.994914619570
         H           -0.768431000000    -2.498004000000     2.659473000000     1.007825032230
         H            0.031223000000    -1.193681000000     2.975804000000     1.007825032230

  Charge       = 0
  Multiplicity = 1
  Basis Set: AUG-CC-PVTZ
    Blend: AUG-CC-PVTZ
  Basis Set: (AUG-CC-PVTZ AUX)
    Blend: AUG-CC-PVTZ-JKFIT + DEF2-UNIVERSAL-JKFIT

    Orbital Energies [Eh]
    ---------------------

    Doubly Occupied:

       1A    -20.561285     2A    -20.546663     3A    -20.544271
       4A    -20.537122     5A    -20.535230     6A    -20.520028
       7A     -1.332930     8A     -1.323161     9A     -1.322658
      10A     -1.316264    11A     -1.312692    12A     -1.303655
      13A     -0.701249    14A     -0.699544    15A     -0.689743
      16A     -0.681789    17A     -0.679288    18A     -0.668720
      19A     -0.569922    20A     -0.555979    21A     -0.554709
      22A     -0.545234    23A     -0.539371    24A     -0.531789
      25A     -0.493428    26A     -0.488561    27A     -0.482491
      28A     -0.482075    29A     -0.468396    30A     -0.464927

  @DF-RHF Final Energy:  -456.32573596668658

   => Energetics <=

    Nuclear Repulsion Energy =            245.0210464310712268
    One-Electron Energy =               -1119.7872094865015242
    Two-Electron Energy =                 418.4404270887437178
    Total Energy =                       -456.3257359666865796
 Dipole X            :         25.5983005          -25.3274531            0.2708474
 Dipole Y            :         60.4084949          -61.0775339           -0.6690389
 Dipole Z            :         16.6736791          -16.8759006           -0.2022215
 Magnitude           :                                                    0.7495765

    SAPT Results
  --------------------------------------------------------------------------------------------------------
    Electrostatics               -115.54967731 [mEh]     -72.50851721 [kcal/mol]    -303.37563599 [kJ/mol]
      Elst10,r                   -121.31866995 [mEh]     -76.12861474 [kcal/mol]    -318.52212407 [kJ/mol]
      Elst12,r                      5.76899264 [mEh]       3.62009753 [kcal/mol]      15.14648808 [kJ/mol]

    Exchange                       36.05267947 [mEh]      22.62339792 [kcal/mol]      94.65629690 [kJ/mol]
      Exch10                       32.08801671 [mEh]      20.13553448 [kcal/mol]      84.24707627 [kJ/mol]
      Exch10(S^2)                  32.03659157 [mEh]      20.10326471 [kcal/mol]      84.11205957 [kJ/mol]
      Exch11(S^2)                  -0.27711343 [mEh]      -0.17389130 [kcal/mol]      -0.72756122 [kJ/mol]
      Exch12(S^2)                   4.24177619 [mEh]       2.66175474 [kcal/mol]      11.13678185 [kJ/mol]

    Induction                     -28.60587775 [mEh]     -17.95045929 [kcal/mol]     -75.10472167 [kJ/mol]
      Ind20,r                     -46.77420294 [mEh]     -29.35125547 [kcal/mol]    -122.80565290 [kJ/mol]
      Ind22                        -8.55963349 [mEh]      -5.37125111 [kcal/mol]     -22.47331462 [kJ/mol]
      Exch-Ind20,r                 23.52510012 [mEh]      14.76222320 [kcal/mol]      61.76514186 [kJ/mol]
      Exch-Ind22                    4.30507036 [mEh]       2.70147244 [kcal/mol]      11.30296068 [kJ/mol]
      delta HF,r (2)               -1.10221180 [mEh]      -0.69164835 [kcal/mol]      -2.89385669 [kJ/mol]

    Dispersion                    -10.06465898 [mEh]      -6.31566886 [kcal/mol]     -26.42475852 [kJ/mol]
      Disp20                      -11.59689674 [mEh]      -7.27716257 [kcal/mol]     -30.44764819 [kJ/mol]
      Disp21                        1.66349333 [mEh]       1.04385783 [kcal/mol]       4.36750114 [kJ/mol]
      Disp22 (SDQ)                 -0.16361003 [mEh]      -0.10266685 [kcal/mol]      -0.42955808 [kJ/mol]
      Disp22 (T)                   -1.23865670 [mEh]      -0.77726881 [kcal/mol]      -3.25209271 [kJ/mol]
      Est. Disp22 (T)              -1.33305369 [mEh]      -0.83650382 [kcal/mol]      -3.49993197 [kJ/mol]
      Exch-Disp20                   1.36540814 [mEh]       0.85680655 [kcal/mol]       3.58487858 [kJ/mol]

  Total HF                       -113.58196786 [mEh]     -71.27376088 [kcal/mol]    -298.20941553 [kJ/mol]
  Total SAPT0                    -123.81345646 [mEh]     -77.69411691 [kcal/mol]    -325.07218514 [kJ/mol]
  Total SAPT2                    -118.33436419 [mEh]     -74.25593460 [kcal/mol]    -310.68683038 [kJ/mol]
  Total SAPT2+                   -118.16753458 [mEh]     -74.15124744 [kcal/mol]    -310.24881929 [kJ/mol]

  Special recipe for scaled SAPT0 (see Manual):
    Electrostatics sSAPT0        -121.31866995 [mEh]     -76.12861474 [kcal/mol]    -318.52212407 [kJ/mol]
    Exchange sSAPT0                32.08801671 [mEh]      20.13553448 [kcal/mol]      84.24707627 [kJ/mol]
    Induction sSAPT0              -24.23784518 [mEh]     -15.20947748 [kcal/mol]     -63.63645376 [kJ/mol]
    Dispersion sSAPT0             -10.22490278 [mEh]      -6.41622336 [kcal/mol]     -26.84547854 [kJ/mol]
  Total sSAPT0                   -123.69340120 [mEh]     -77.61878109 [kcal/mol]    -324.75698010 [kJ/mol]
  --------------------------------------------------------------------------------------------------------

*** Psi4 exiting successfully. Buy a developer a beer!
