                               Psi4 1.9 release

  ==> Input File <==

--------------------------------------------------------------------------
MEMORY 60 GB

molecule dimer {
1 1
K      0.000000     0.000000     0.000000
--
0 1
O      1.561623    -1.801787     1.465392
H      1.495913    -1.409150     2.361074
H      2.405619    -2.025458     1.077899
O     -1.424639    -0.655851     2.090662
H     -0.921701    -0.097964     2.672960
H     -2.396934    -0.579047     2.394294
O     -0.430437    -1.342300    -2.594784
H     -0.028298    -2.177339    -2.869167
H     -0.070011    -0.628832    -3.155245
O      1.871301     1.921050    -0.065534
H      2.359953     2.169210     0.749252
H      2.507104     1.476286    -0.655249

units ang
no_reorient
no_com
symmetry c1
}

set {
basis        aug-cc-pVTZ
scf_type     df
}

energy("sapt2+")
--------------------------------------------------------------------------

  //              Dimer HF             //
    Molecular point group: c1
  Charge       = 1
  Multiplicity = 1
  Basis Set: AUG-CC-PVTZ
    Blend: AUG-CC-PVTZ
  Basis Set: (AUG-CC-PVTZ AUX)
    Blend: AUG-CC-PVTZ-JKFIT + DEF2-UNIVERSAL-JKFIT
  @DF-RHF Final Energy:  -903.30793625645447
    Total Energy =                       -903.3079362564544681
 Dipole X            :        -32.3954129           33.9667481            1.5713352
 Dipole Y            :         34.7236568          -34.5884094            0.1352474
 Dipole Z            :        -17.7534433           18.4091563            0.6557131
 Magnitude           :                                                    1.7080239
  //            Monomer A HF           //
    Molecular point group: c1
  Multiplicity = 1
  Basis Set: AUG-CC-PVTZ
    Blend: AUG-CC-PVTZ
  Basis Set: (AUG-CC-PVTZ AUX)
    Blend: AUG-CC-PVTZ-JKFIT + DEF2-UNIVERSAL-JKFIT
  @DF-RHF Final Energy:  -599.01751474147693
    Total Energy =                       -599.0175147414769299
  //            Monomer B HF           //
    Molecular point group: c1

    Geometry (in Angstrom), charge = 0, multiplicity = 1:

       Center              X                  Y                   Z               Mass
    ------------   -----------------  -----------------  -----------------  -----------------
      Gh(K)           0.000000000000     0.000000000000     0.000000000000    38.963706486400
         O            1.561623000000    -1.801787000000     1.465392000000    15.994914619570
         H            1.495913000000    -1.409150000000     2.361074000000     1.007825032230
         H            2.405619000000    -2.025458000000     1.077899000000     1.007825032230
         O           -1.424639000000    -0.655851000000     2.090662000000    15.994914619570
         H           -0.921701000000    -0.097964000000     2.672960000000     1.007825032230
         H           -2.396934000000    -0.579047000000     2.394294000000     1.007825032230
         O           -0.430437000000    -1.342300000000    -2.594784000000    15.994914619570
         H           -0.028298000000    -2.177339000000    -2.869167000000     1.007825032230
         H           -0.070011000000    -0.628832000000    -3.155245000000     1.007825032230
         O            1.871301000000     1.921050000000    -0.065534000000    15.994914619570
         H            2.359953000000     2.169210000000     0.749252000000     1.007825032230
         H            2.507104000000     1.476286000000    -0.655249000000     1.007825032230

  Charge       = 0
  Multiplicity = 1
  Basis Set: AUG-CC-PVTZ
    Blend: AUG-CC-PVTZ
  Basis Set: (AUG-CC-PVTZ AUX)
    Blend: AUG-CC-PVTZ-JKFIT + DEF2-UNIVERSAL-JKFIT

    Orbital Energies [Eh]
    ---------------------

    Doubly Occupied:

       1A    -20.562341     2A    -20.554108     3A    -20.551166
       4A    -20.545290     5A     -1.333909     6A     -1.326879
       7A     -1.323013     8A     -1.321114     9A     -0.726082
      10A     -0.703940    11A     -0.700289    12A     -0.688586
      13A     -0.568225    14A     -0.557742    15A     -0.556727
      16A     -0.532500    17A     -0.500915    18A     -0.490817
      19A     -0.490108    20A     -0.487136

  @DF-RHF Final Energy:  -304.21704485517910

   => Energetics <=

    Nuclear Repulsion Energy =            108.5422710261872794
    One-Electron Energy =                -636.4768556927720056
    Two-Electron Energy =                 223.7175398114055724
    Total Energy =                       -304.2170448551790969
 Dipole X            :        -32.5449029           33.9667481            1.4218452
 Dipole Y            :         34.8887404          -34.5884094            0.3003310
 Dipole Z            :        -17.9245017           18.4091563            0.4846546
 Magnitude           :                                                    1.5319049

    SAPT Results
  --------------------------------------------------------------------------------------------------------
    Electrostatics                -84.82102819 [mEh]     -53.22599876 [kcal/mol]    -222.69757883 [kJ/mol]
      Elst10,r                    -87.03531159 [mEh]     -54.61548257 [kcal/mol]    -228.51117908 [kJ/mol]
      Elst12,r                      2.21428340 [mEh]       1.38948381 [kcal/mol]       5.81360026 [kJ/mol]

    Exchange                       37.17154048 [mEh]      23.32549380 [kcal/mol]      97.59386607 [kJ/mol]
      Exch10                       33.09457328 [mEh]      20.76715826 [kcal/mol]      86.88979017 [kJ/mol]
      Exch10(S^2)                  33.00909521 [mEh]      20.71351997 [kcal/mol]      86.66536754 [kJ/mol]
      Exch11(S^2)                  -0.15949035 [mEh]      -0.10008171 [kcal/mol]      -0.41874186 [kJ/mol]
      Exch12(S^2)                   4.23645755 [mEh]       2.65841725 [kcal/mol]      11.12281776 [kJ/mol]

    Induction                     -22.92968005 [mEh]     -14.38859146 [kcal/mol]     -60.20186667 [kJ/mol]
      Ind20,r                     -45.55688785 [mEh]     -28.58737872 [kcal/mol]    -119.60959256 [kJ/mol]
      Ind22                        -8.53999482 [mEh]      -5.35892765 [kcal/mol]     -22.42175331 [kJ/mol]
      Exch-Ind20,r                 26.91931603 [mEh]      16.89212584 [kcal/mol]      70.67665450 [kJ/mol]
      Exch-Ind22                    5.04623626 [mEh]       3.16656106 [kcal/mol]      13.24889148 [kJ/mol]
      delta HF,r (2)               -0.79834967 [mEh]      -0.50097198 [kcal/mol]      -2.09606678 [kJ/mol]

    Dispersion                     -8.19892742 [mEh]      -5.14490463 [kcal/mol]     -21.52628097 [kJ/mol]
      Disp20                       -9.54634261 [mEh]      -5.99042043 [kcal/mol]     -25.06391906 [kJ/mol]
      Disp21                        1.21347062 [mEh]       0.76146431 [kcal/mol]       3.18596669 [kJ/mol]
      Disp22 (SDQ)                 -0.10528815 [mEh]      -0.06606931 [kcal/mol]      -0.27643400 [kJ/mol]
      Disp22 (T)                   -0.98975376 [mEh]      -0.62107986 [kcal/mol]      -2.59859813 [kJ/mol]
      Est. Disp22 (T)              -1.07732621 [mEh]      -0.67603240 [kcal/mol]      -2.82851958 [kJ/mol]
      Exch-Disp20                   1.31655893 [mEh]       0.82615320 [kcal/mol]       3.45662499 [kJ/mol]

  Total HF                        -73.37665980 [mEh]     -46.04454918 [kcal/mol]    -192.65039376 [kJ/mol]
  Total SAPT0                     -81.60644348 [mEh]     -51.20881640 [kcal/mol]    -214.25768783 [kJ/mol]
  Total SAPT2                     -78.80895144 [mEh]     -49.45336365 [kcal/mol]    -206.91287350 [kJ/mol]
  Total SAPT2+                    -78.77809518 [mEh]     -49.43400105 [kcal/mol]    -206.83186039 [kJ/mol]

  Special recipe for scaled SAPT0 (see Manual):
    Electrostatics sSAPT0         -87.03531159 [mEh]     -54.61548257 [kcal/mol]    -228.51117908 [kJ/mol]
    Exchange sSAPT0                33.09457328 [mEh]      20.76715826 [kcal/mol]      86.88979017 [kJ/mol]
    Induction sSAPT0              -19.22625431 [mEh]     -12.06465672 [kcal/mol]     -50.47852373 [kJ/mol]
    Dispersion sSAPT0              -8.21952936 [mEh]      -5.15783255 [kcal/mol]     -21.58037137 [kJ/mol]
  Total sSAPT0                    -81.38652198 [mEh]     -51.07081358 [kcal/mol]    -213.68028401 [kJ/mol]
  --------------------------------------------------------------------------------------------------------

*** Psi4 exiting successfully. Buy a developer a beer!
