                               Psi4 1.9 release

  ==> Input File <==

--------------------------------------------------------------------------
MEMORY 60 GB

molecule dimer {
1 1
K      0.000000     0.000000     0.000000
--
0 1
O      2.852757    -0.334051    -0.186806
H      3.665059    -0.772002     0.113705
H      2.976979    -0.248733    -1.158383
O     -1.826235    -0.322399    -1.984574
H     -1.297659    -0.061936    -2.754238
H     -1.684865    -1.318774    -1.991083
O     -0.349652    -2.346622     1.050442
H      0.209215    -3.119233     1.249847
H     -1.269300    -2.641149     1.131510
O     -1.923855    -0.178301     2.183220
H     -1.437654    -1.016009     2.224042
H     -2.508504    -0.247868     1.457316
O      0.850534    -1.021556    -2.165011
H      0.594881    -1.697915    -2.784155
H      1.648642    -0.724977    -2.660875

units ang
no_reorient
no_com
symmetry c1
}

set {
basis        aug-cc-pVTZ
scf_type     df
}

energy("sapt2+")
--------------------------------------------------------------------------

  //              Dimer HF             //
    Molecular point group: c1
  Charge       = 1
  Multiplicity = 1
  Basis Set: AUG-CC-PVTZ
    Blend: AUG-CC-PVTZ
  Basis Set: (AUG-CC-PVTZ AUX)
    Blend: AUG-CC-PVTZ-JKFIT + DEF2-UNIVERSAL-JKFIT
  @DF-RHF Final Energy:  -979.36286612004028
    Total Energy =                       -979.3628661200402803
 Dipole X            :          5.5674226           -4.2987754            1.2686471
 Dipole Y            :         83.1965124          -85.9296793           -2.7331669
 Dipole Z            :         24.3669854          -26.4451033           -2.0781179
 Magnitude           :                                                    3.6603608
  //            Monomer A HF           //
    Molecular point group: c1
  Multiplicity = 1
  Basis Set: AUG-CC-PVTZ
    Blend: AUG-CC-PVTZ
  Basis Set: (AUG-CC-PVTZ AUX)
    Blend: AUG-CC-PVTZ-JKFIT + DEF2-UNIVERSAL-JKFIT
  @DF-RHF Final Energy:  -599.01751616161482
    Total Energy =                       -599.0175161616149353
  //            Monomer B HF           //
    Molecular point group: c1

    Geometry (in Angstrom), charge = 0, multiplicity = 1:

       Center              X                  Y                   Z               Mass
    ------------   -----------------  -----------------  -----------------  -----------------
      Gh(K)           0.000000000000     0.000000000000     0.000000000000    38.963706486400
         O            2.852757000000    -0.334051000000    -0.186806000000    15.994914619570
         H            3.665059000000    -0.772002000000     0.113705000000     1.007825032230
         H            2.976979000000    -0.248733000000    -1.158383000000     1.007825032230
         O           -1.826235000000    -0.322399000000    -1.984574000000    15.994914619570
         H           -1.297659000000    -0.061936000000    -2.754238000000     1.007825032230
         H           -1.684865000000    -1.318774000000    -1.991083000000     1.007825032230
         O           -0.349652000000    -2.346622000000     1.050442000000    15.994914619570
         H            0.209215000000    -3.119233000000     1.249847000000     1.007825032230
         H           -1.269300000000    -2.641149000000     1.131510000000     1.007825032230
         O           -1.923855000000    -0.178301000000     2.183220000000    15.994914619570
         H           -1.437654000000    -1.016009000000     2.224042000000     1.007825032230
         H           -2.508504000000    -0.247868000000     1.457316000000     1.007825032230
         O            0.850534000000    -1.021556000000    -2.165011000000    15.994914619570
         H            0.594881000000    -1.697915000000    -2.784155000000     1.007825032230
         H            1.648642000000    -0.724977000000    -2.660875000000     1.007825032230

  Charge       = 0
  Multiplicity = 1
  Basis Set: AUG-CC-PVTZ
    Blend: AUG-CC-PVTZ
  Basis Set: (AUG-CC-PVTZ AUX)
    Blend: AUG-CC-PVTZ-JKFIT + DEF2-UNIVERSAL-JKFIT

    Orbital Energies [Eh]
    ---------------------

    Doubly Occupied:

       1A    -20.581118     2A    -20.574494     3A    -20.559223
       4A    -20.550649     5A    -20.525732     6A     -1.366593
       7A     -1.353570     8A     -1.332610     9A     -1.319192
      10A     -1.317460    11A     -0.725828    12A     -0.716558
      13A     -0.687137    14A     -0.686175    15A     -0.673428
      16A     -0.609408    17A     -0.583947    18A     -0.569037
      19A     -0.567049    20A     -0.548087    21A     -0.524291
      22A     -0.511357    23A     -0.494094    24A     -0.481709
      25A     -0.471734

  @DF-RHF Final Energy:  -380.26957054302210

   => Energetics <=

    Nuclear Repulsion Energy =            183.2975717134114859
    One-Electron Energy =                -890.4733197035147896
    Two-Electron Energy =                 326.9061774470812338
    Total Energy =                       -380.2695705430220983
 Dipole X            :          5.5492691           -4.2987754            1.2504937
 Dipole Y            :         83.6743553          -85.9296793           -2.2553239
 Dipole Z            :         24.5563640          -26.4451033           -1.8887393
 Magnitude           :                                                    3.1964913

    SAPT Results
  --------------------------------------------------------------------------------------------------------
    Electrostatics                -90.30620396 [mEh]     -56.66799852 [kcal/mol]    -237.09890583 [kJ/mol]
      Elst10,r                    -93.96681189 [mEh]     -58.96506468 [kcal/mol]    -246.70983062 [kJ/mol]
      Elst12,r                      3.66060793 [mEh]       2.29706616 [kcal/mol]       9.61092479 [kJ/mol]

    Exchange                       46.69906165 [mEh]      29.30410360 [kcal/mol]     122.60836948 [kJ/mol]
      Exch10                       42.11611875 [mEh]      26.42826351 [kcal/mol]     110.57585454 [kJ/mol]
      Exch10(S^2)                  41.93300164 [mEh]      26.31335579 [kcal/mol]     110.09508063 [kJ/mol]
      Exch11(S^2)                  -0.30077138 [mEh]      -0.18873689 [kcal/mol]      -0.78967515 [kJ/mol]
      Exch12(S^2)                   4.88371429 [mEh]       3.06457698 [kcal/mol]      12.82219009 [kJ/mol]

    Induction                     -28.06397420 [mEh]     -17.61040968 [kcal/mol]     -73.68195411 [kJ/mol]
      Ind20,r                     -51.53380409 [mEh]     -32.33795029 [kcal/mol]    -135.30198401 [kJ/mol]
      Ind22                        -9.55645757 [mEh]      -5.99676766 [kcal/mol]     -25.09047589 [kJ/mol]
      Exch-Ind20,r                 29.23419552 [mEh]      18.34473465 [kcal/mol]      76.75436977 [kJ/mol]
      Exch-Ind22                    5.42120563 [mEh]       3.40185789 [kcal/mol]      14.23337343 [kJ/mol]
      delta HF,r (2)               -1.62911369 [mEh]      -1.02228428 [kcal/mol]      -4.27723741 [kJ/mol]

    Dispersion                    -10.94548423 [mEh]      -6.86839505 [kcal/mol]     -28.73736490 [kJ/mol]
      Disp20                      -12.90743621 [mEh]      -8.09953850 [kcal/mol]     -33.88846910 [kJ/mol]
      Disp21                        1.91774340 [mEh]       1.20340215 [kcal/mol]       5.03503461 [kJ/mol]
      Disp22 (SDQ)                 -0.20114685 [mEh]      -0.12622155 [kcal/mol]      -0.52811098 [kJ/mol]
      Disp22 (T)                   -1.35121944 [mEh]      -0.84790300 [kcal/mol]      -3.54762616 [kJ/mol]
      Est. Disp22 (T)              -1.45973794 [mEh]      -0.91599939 [kcal/mol]      -3.83254144 [kJ/mol]
      Exch-Disp20                   1.70509337 [mEh]       1.06996224 [kcal/mol]       4.47672202 [kJ/mol]

  Total HF                        -75.77941540 [mEh]     -47.55230108 [kcal/mol]    -198.95882773 [kJ/mol]
  Total SAPT0                     -86.98175825 [mEh]     -54.58187735 [kcal/mol]    -228.37057482 [kJ/mol]
  Total SAPT2                     -82.87345935 [mEh]     -52.00388087 [kcal/mol]    -217.58423754 [kJ/mol]
  Total SAPT2+                    -82.61660074 [mEh]     -51.84269965 [kcal/mol]    -216.90985535 [kJ/mol]

  Special recipe for scaled SAPT0 (see Manual):
    Electrostatics sSAPT0         -93.96681189 [mEh]     -58.96506468 [kcal/mol]    -246.70983062 [kJ/mol]
    Exchange sSAPT0                42.11611875 [mEh]      26.42826351 [kcal/mol]     110.57585454 [kJ/mol]
    Induction sSAPT0              -23.54405917 [mEh]     -14.77412018 [kcal/mol]     -61.81491884 [kJ/mol]
    Dispersion sSAPT0             -11.17990725 [mEh]      -7.01549772 [kcal/mol]     -29.35284245 [kJ/mol]
  Total sSAPT0                    -86.57465957 [mEh]     -54.32641907 [kcal/mol]    -227.30173737 [kJ/mol]
  --------------------------------------------------------------------------------------------------------

*** Psi4 exiting successfully. Buy a developer a beer!
