                               Psi4 1.9 release

  ==> Input File <==

--------------------------------------------------------------------------
MEMORY 60 GB

molecule dimer {
1 1
K      0.000000     0.000000     0.000000
--
0 1
O      2.529918    -1.431771    -0.209555
H      3.170446    -0.706615    -0.323319
H      2.749458    -2.010204     0.519739
O      1.813586     1.029246     2.230508
H      1.419877     1.724132     2.765815
H      2.307126     1.578543     1.545356
O     -1.368704    -0.907145    -2.217904
H     -1.940339    -1.698694    -2.000603
H     -1.925491    -0.236454    -2.630828
O      1.146945     2.118489    -1.194320
H      1.871621     1.704285    -1.765925
H      1.593857     2.809076    -0.560670
O     -1.511741    -0.504052     2.510190
H     -2.151551    -1.120327     2.142254
H     -0.821208    -1.100007     2.922543

units ang
no_reorient
no_com
symmetry c1
}

set {
basis        aug-cc-pVTZ
scf_type     df
}

energy("sapt2+")
--------------------------------------------------------------------------

  //              Dimer HF             //
    Molecular point group: c1
  Charge       = 1
  Multiplicity = 1
  Basis Set: AUG-CC-PVTZ
    Blend: AUG-CC-PVTZ
  Basis Set: (AUG-CC-PVTZ AUX)
    Blend: AUG-CC-PVTZ-JKFIT + DEF2-UNIVERSAL-JKFIT
  @DF-RHF Final Energy:  -979.36856594242397
    Total Energy =                       -979.3685659424239702
 Dipole X            :        -50.5007849           51.3132982            0.8125132
 Dipole Y            :         -6.1566318            6.3908100            0.2341782
 Dipole Z            :        -21.5971585           21.8560319            0.2588735
 Magnitude           :                                                    0.8843261
  //            Monomer A HF           //
    Molecular point group: c1
  Multiplicity = 1
  Basis Set: AUG-CC-PVTZ
    Blend: AUG-CC-PVTZ
  Basis Set: (AUG-CC-PVTZ AUX)
    Blend: AUG-CC-PVTZ-JKFIT + DEF2-UNIVERSAL-JKFIT
  @DF-RHF Final Energy:  -599.01751569871885
    Total Energy =                       -599.0175156987188529
  //            Monomer B HF           //
    Molecular point group: c1

    Geometry (in Angstrom), charge = 0, multiplicity = 1:

       Center              X                  Y                   Z               Mass
    ------------   -----------------  -----------------  -----------------  -----------------
      Gh(K)           0.000000000000     0.000000000000     0.000000000000    38.963706486400
         O            2.529918000000    -1.431771000000    -0.209555000000    15.994914619570
         H            3.170446000000    -0.706615000000    -0.323319000000     1.007825032230
         H            2.749458000000    -2.010204000000     0.519739000000     1.007825032230
         O            1.813586000000     1.029246000000     2.230508000000    15.994914619570
         H            1.419877000000     1.724132000000     2.765815000000     1.007825032230
         H            2.307126000000     1.578543000000     1.545356000000     1.007825032230
         O           -1.368704000000    -0.907145000000    -2.217904000000    15.994914619570
         H           -1.940339000000    -1.698694000000    -2.000603000000     1.007825032230
         H           -1.925491000000    -0.236454000000    -2.630828000000     1.007825032230
         O            1.146945000000     2.118489000000    -1.194320000000    15.994914619570
         H            1.871621000000     1.704285000000    -1.765925000000     1.007825032230
         H            1.593857000000     2.809076000000    -0.560670000000     1.007825032230
         O           -1.511741000000    -0.504052000000     2.510190000000    15.994914619570
         H           -2.151551000000    -1.120327000000     2.142254000000     1.007825032230
         H           -0.821208000000    -1.100007000000     2.922543000000     1.007825032230

  Charge       = 0
  Multiplicity = 1
  Basis Set: AUG-CC-PVTZ
    Blend: AUG-CC-PVTZ
  Basis Set: (AUG-CC-PVTZ AUX)
    Blend: AUG-CC-PVTZ-JKFIT + DEF2-UNIVERSAL-JKFIT

    Orbital Energies [Eh]
    ---------------------

    Doubly Occupied:

       1A    -20.571042     2A    -20.563180     3A    -20.552186
       4A    -20.550560     5A    -20.548194     6A     -1.332949
       7A     -1.327410     8A     -1.323008     9A     -1.319360
      10A     -1.313191    11A     -0.712921    12A     -0.691801
      13A     -0.687578    14A     -0.683724    15A     -0.680893
      16A     -0.577311    17A     -0.562741    18A     -0.557841
      19A     -0.552453    20A     -0.549748    21A     -0.502617
      22A     -0.494266    23A     -0.489526    24A     -0.488806
      25A     -0.487134

  @DF-RHF Final Energy:  -380.26723677070504

   => Energetics <=

    Nuclear Repulsion Energy =            165.5574838899317740
    One-Electron Energy =                -855.4085501183252518
    Two-Electron Energy =                 309.5838294576884664
    Total Energy =                       -380.2672367707050398
 Dipole X            :        -50.7234615           51.3132982            0.5898366
 Dipole Y            :         -6.2114359            6.3908100            0.1793741
 Dipole Z            :        -21.6259023           21.8560319            0.2301296
 Magnitude           :                                                    0.6580592

    SAPT Results
  --------------------------------------------------------------------------------------------------------
    Electrostatics                -89.57911694 [mEh]     -56.21174453 [kcal/mol]    -235.18993913 [kJ/mol]
      Elst10,r                    -91.60626501 [mEh]     -57.48379915 [kcal/mol]    -240.51221566 [kJ/mol]
      Elst12,r                      2.02714807 [mEh]       1.27205462 [kcal/mol]       5.32227652 [kJ/mol]

    Exchange                       32.29416782 [mEh]      20.26489626 [kcal/mol]      84.78832594 [kJ/mol]
      Exch10                       28.20014362 [mEh]      17.69585729 [kcal/mol]      74.03946688 [kJ/mol]
      Exch10(S^2)                  28.15481594 [mEh]      17.66741374 [kcal/mol]      73.92045907 [kJ/mol]
      Exch11(S^2)                  -0.18057092 [mEh]      -0.11330996 [kcal/mol]      -0.47408888 [kJ/mol]
      Exch12(S^2)                   4.27459512 [mEh]       2.68234893 [kcal/mol]      11.22294793 [kJ/mol]

    Induction                     -24.36386417 [mEh]     -15.28855559 [kcal/mol]     -63.96731657 [kJ/mol]
      Ind20,r                     -42.88748831 [mEh]     -26.91230522 [kcal/mol]    -112.60108506 [kJ/mol]
      Ind22                        -8.59893956 [mEh]      -5.39591604 [kcal/mol]     -22.57651271 [kJ/mol]
      Exch-Ind20,r                 23.15425435 [mEh]      14.52951396 [kcal/mol]      60.79148641 [kJ/mol]
      Exch-Ind22                    4.64242700 [mEh]       2.91316692 [kcal/mol]      12.18869041 [kJ/mol]
      delta HF,r (2)               -0.67411765 [mEh]      -0.42301521 [kcal/mol]      -1.76989563 [kJ/mol]

    Dispersion                     -8.30905224 [mEh]      -5.21400900 [kcal/mol]     -21.81541364 [kJ/mol]
      Disp20                       -9.44373505 [mEh]      -5.92603321 [kcal/mol]     -24.79452296 [kJ/mol]
      Disp21                        1.21309229 [mEh]       0.76122691 [kcal/mol]       3.18497337 [kJ/mol]
      Disp22 (SDQ)                 -0.13670260 [mEh]      -0.08578218 [kcal/mol]      -0.35891263 [kJ/mol]
      Disp22 (T)                   -1.02363735 [mEh]      -0.64234214 [kcal/mol]      -2.68755950 [kJ/mol]
      Est. Disp22 (T)              -1.10699988 [mEh]      -0.69465291 [kcal/mol]      -2.90642779 [kJ/mol]
      Exch-Disp20                   1.16529301 [mEh]       0.73123240 [kcal/mol]       3.05947636 [kJ/mol]

  Total HF                        -83.81347300 [mEh]     -52.59374834 [kcal/mol]    -220.05224305 [kJ/mol]
  Total SAPT0                     -92.09191504 [mEh]     -57.78854915 [kcal/mol]    -241.78728964 [kJ/mol]
  Total SAPT2                     -89.92725533 [mEh]     -56.43020467 [kcal/mol]    -236.10397635 [kJ/mol]
  Total SAPT2+                    -89.95786553 [mEh]     -56.44941286 [kcal/mol]    -236.18434340 [kJ/mol]

  Special recipe for scaled SAPT0 (see Manual):
    Electrostatics sSAPT0         -91.60626501 [mEh]     -57.48379915 [kcal/mol]    -240.51221566 [kJ/mol]
    Exchange sSAPT0                28.20014362 [mEh]      17.69585729 [kcal/mol]      74.03946688 [kJ/mol]
    Induction sSAPT0              -20.29534030 [mEh]     -12.73551831 [kcal/mol]     -53.28540862 [kJ/mol]
    Dispersion sSAPT0              -8.27280481 [mEh]      -5.19126339 [kcal/mol]     -21.72024603 [kJ/mol]
  Total sSAPT0                    -91.97426650 [mEh]     -57.71472357 [kcal/mol]    -241.47840343 [kJ/mol]
  --------------------------------------------------------------------------------------------------------

*** Psi4 exiting successfully. Buy a developer a beer!
