                               Psi4 1.9 release

  ==> Input File <==

--------------------------------------------------------------------------
MEMORY 60 GB

molecule dimer {
1 1
K      0.000000     0.000000     0.000000
--
0 1
O      0.798245    -2.673232     0.586516
H      1.259072    -3.227763    -0.050608
H      1.531752    -2.180835     0.924560
O      1.063720    -0.518108     2.608119
H      1.747934    -1.086894     2.959635
H      0.362801    -0.538207     3.240479
O     -0.749147     2.531063     1.106211
H     -1.357034     2.493353     1.855151
H     -0.245091     3.336779     1.345826
O     -0.978931     1.576870    -1.879881
H     -0.514846     1.896055    -2.647649
H     -1.625313     0.989072    -2.202663

units ang
no_reorient
no_com
symmetry c1
}

set {
basis        aug-cc-pVTZ
scf_type     df
}

energy("sapt2+")
--------------------------------------------------------------------------

  //              Dimer HF             //
    Molecular point group: c1
  Charge       = 1
  Multiplicity = 1
  Basis Set: AUG-CC-PVTZ
    Blend: AUG-CC-PVTZ
  Basis Set: (AUG-CC-PVTZ AUX)
    Blend: AUG-CC-PVTZ-JKFIT + DEF2-UNIVERSAL-JKFIT
  @DF-RHF Final Energy:  -903.32040467892671
    Total Energy =                       -903.3204046789267068
 Dipole X            :         -3.6696598            4.2147903            0.5451306
 Dipole Y            :        -16.9814024           17.0345658            0.0531634
 Dipole Z            :        -46.3024519           46.8509424            0.5484904
 Magnitude           :                                                    0.7751358
  //            Monomer A HF           //
    Molecular point group: c1
  Multiplicity = 1
  Basis Set: AUG-CC-PVTZ
    Blend: AUG-CC-PVTZ
  Basis Set: (AUG-CC-PVTZ AUX)
    Blend: AUG-CC-PVTZ-JKFIT + DEF2-UNIVERSAL-JKFIT
  @DF-RHF Final Energy:  -599.01751386893989
    Total Energy =                       -599.0175138689397727
  //            Monomer B HF           //
    Molecular point group: c1

    Geometry (in Angstrom), charge = 0, multiplicity = 1:

       Center              X                  Y                   Z               Mass
    ------------   -----------------  -----------------  -----------------  -----------------
      Gh(K)           0.000000000000     0.000000000000     0.000000000000    38.963706486400
         O            0.798245000000    -2.673232000000     0.586516000000    15.994914619570
         H            1.259072000000    -3.227763000000    -0.050608000000     1.007825032230
         H            1.531752000000    -2.180835000000     0.924560000000     1.007825032230
         O            1.063720000000    -0.518108000000     2.608119000000    15.994914619570
         H            1.747934000000    -1.086894000000     2.959635000000     1.007825032230
         H            0.362801000000    -0.538207000000     3.240479000000     1.007825032230
         O           -0.749147000000     2.531063000000     1.106211000000    15.994914619570
         H           -1.357034000000     2.493353000000     1.855151000000     1.007825032230
         H           -0.245091000000     3.336779000000     1.345826000000     1.007825032230
         O           -0.978931000000     1.576870000000    -1.879881000000    15.994914619570
         H           -0.514846000000     1.896055000000    -2.647649000000     1.007825032230
         H           -1.625313000000     0.989072000000    -2.202663000000     1.007825032230

  Charge       = 0
  Multiplicity = 1
  Basis Set: AUG-CC-PVTZ
    Blend: AUG-CC-PVTZ
  Basis Set: (AUG-CC-PVTZ AUX)
    Blend: AUG-CC-PVTZ-JKFIT + DEF2-UNIVERSAL-JKFIT

    Orbital Energies [Eh]
    ---------------------

    Doubly Occupied:

       1A    -20.557334     2A    -20.548576     3A    -20.545640
       4A    -20.538412     5A     -1.350264     6A     -1.338450
       7A     -1.335796     8A     -1.322968     9A     -0.719739
      10A     -0.703737    11A     -0.688873    12A     -0.673790
      13A     -0.575840    14A     -0.575490    15A     -0.570311
      16A     -0.550447    17A     -0.502860    18A     -0.491915
      19A     -0.486756    20A     -0.481852

  @DF-RHF Final Energy:  -304.22975606486654

   => Energetics <=

    Nuclear Repulsion Energy =            112.4656130904583762
    One-Electron Energy =                -644.2726348821557849
    Two-Electron Energy =                 227.5772657268308308
    Total Energy =                       -304.2297560648665353
 Dipole X            :         -3.6827193            4.2147903            0.5320710
 Dipole Y            :        -17.1061064           17.0345658           -0.0715407
 Dipole Z            :        -46.4691051           46.8509424            0.3818373
 Magnitude           :                                                    0.6587999

    SAPT Results
  --------------------------------------------------------------------------------------------------------
    Electrostatics                -78.38548929 [mEh]     -49.18763714 [kcal/mol]    -205.80107378 [kJ/mol]
      Elst10,r                    -81.18348989 [mEh]     -50.94340902 [kcal/mol]    -213.14722333 [kJ/mol]
      Elst12,r                      2.79800060 [mEh]       1.75577188 [kcal/mol]       7.34614955 [kJ/mol]

    Exchange                       29.11050014 [mEh]      18.26711462 [kcal/mol]      76.42960758 [kJ/mol]
      Exch10                       25.84229367 [mEh]      16.21628410 [kcal/mol]      67.84893268 [kJ/mol]
      Exch10(S^2)                  25.75644566 [mEh]      16.16241366 [kcal/mol]      67.62353877 [kJ/mol]
      Exch11(S^2)                  -0.08385335 [mEh]      -0.05261877 [kcal/mol]      -0.22015695 [kJ/mol]
      Exch12(S^2)                   3.35205982 [mEh]       2.10344929 [kcal/mol]       8.80083184 [kJ/mol]

    Induction                     -20.87588728 [mEh]     -13.09981704 [kcal/mol]     -54.80963451 [kJ/mol]
      Ind20,r                     -37.90441268 [mEh]     -23.78537806 [kcal/mol]     -99.51802179 [kJ/mol]
      Ind22                        -6.83133123 [mEh]      -4.28672506 [kcal/mol]     -17.93565766 [kJ/mol]
      Exch-Ind20,r                 20.80171013 [mEh]      13.05327018 [kcal/mol]      54.61488242 [kJ/mol]
      Exch-Ind22                    3.74899285 [mEh]       2.35252853 [kcal/mol]       9.84297936 [kJ/mol]
      delta HF,r (2)               -0.69084635 [mEh]      -0.43351263 [kcal/mol]      -1.81381685 [kJ/mol]

    Dispersion                     -7.20130354 [mEh]      -4.51888620 [kcal/mol]     -18.90701984 [kJ/mol]
      Disp20                       -8.28756358 [mEh]      -5.20052466 [kcal/mol]     -21.75899518 [kJ/mol]
      Disp21                        1.08168215 [mEh]       0.67876580 [kcal/mol]       2.83995609 [kJ/mol]
      Disp22 (SDQ)                 -0.10192402 [mEh]      -0.06395829 [kcal/mol]      -0.26760148 [kJ/mol]
      Disp22 (T)                   -0.85541002 [mEh]      -0.53677789 [kcal/mol]      -2.24587870 [kJ/mol]
      Est. Disp22 (T)              -0.92897758 [mEh]      -0.58294223 [kcal/mol]      -2.43903029 [kJ/mol]
      Exch-Disp20                   1.03547949 [mEh]       0.64977319 [kcal/mol]       2.71865102 [kJ/mol]

  Total HF                        -73.13474512 [mEh]     -45.89274543 [kcal/mol]    -192.01524686 [kJ/mol]
  Total SAPT0                     -80.38682921 [mEh]     -50.44349690 [kcal/mol]    -211.05559102 [kJ/mol]
  Total SAPT2                     -77.40296053 [mEh]     -48.57109103 [kcal/mol]    -203.22144488 [kJ/mol]
  Total SAPT2+                    -77.35217998 [mEh]     -48.53922575 [kcal/mol]    -203.08812055 [kJ/mol]

  Special recipe for scaled SAPT0 (see Manual):
    Electrostatics sSAPT0         -81.18348989 [mEh]     -50.94340902 [kcal/mol]    -213.14722333 [kJ/mol]
    Exchange sSAPT0                25.84229367 [mEh]      16.21628410 [kcal/mol]      67.84893268 [kJ/mol]
    Induction sSAPT0              -17.58485425 [mEh]     -11.03466264 [kcal/mol]     -46.16902848 [kJ/mol]
    Dispersion sSAPT0              -7.24169557 [mEh]      -4.54423258 [kcal/mol]     -19.01306910 [kJ/mol]
  Total sSAPT0                    -80.16774604 [mEh]     -50.30602013 [kcal/mol]    -210.48038823 [kJ/mol]
  --------------------------------------------------------------------------------------------------------

*** Psi4 exiting successfully. Buy a developer a beer!
