                               Psi4 1.9 release

  ==> Input File <==

--------------------------------------------------------------------------
MEMORY 60 GB

molecule dimer {
1 1
K      0.000000     0.000000     0.000000
--
0 1
O      1.071555     0.954094    -2.190576
H      0.988044     0.627626    -3.082246
H      2.033843     1.175330    -2.123700
O      0.274950    -2.378870     1.386517
H      1.061758    -2.885643     1.678485
H     -0.286488    -2.176641     2.185497
O     -2.600308    -0.631598     1.158703
H     -3.127240     0.272988     1.162722
H     -3.320091    -1.304406     1.282020
O      1.663337     0.245190     1.974484
H      1.864456    -0.680749     1.983483
H      0.980603     0.492300     2.612029
O     -1.135864     2.411578    -0.478100
H     -1.659332     3.079461    -0.022507
H     -0.274050     2.843524    -0.678120

units ang
no_reorient
no_com
symmetry c1
}

set {
basis        aug-cc-pVTZ
scf_type     df
}

energy("sapt2+")
--------------------------------------------------------------------------

  //              Dimer HF             //
    Molecular point group: c1
  Charge       = 1
  Multiplicity = 1
  Basis Set: AUG-CC-PVTZ
    Blend: AUG-CC-PVTZ
  Basis Set: (AUG-CC-PVTZ AUX)
    Blend: AUG-CC-PVTZ-JKFIT + DEF2-UNIVERSAL-JKFIT
  @DF-RHF Final Energy:  -979.37870411878328
    Total Energy =                       -979.3787041187832756
 Dipole X            :         14.0052726          -14.2658014           -0.2605288
 Dipole Y            :        -11.6535947           11.8050095            0.1514148
 Dipole Z            :        -36.5614454           37.4277021            0.8662567
 Magnitude           :                                                    0.9171708
  //            Monomer A HF           //
    Molecular point group: c1
  Multiplicity = 1
  Basis Set: AUG-CC-PVTZ
    Blend: AUG-CC-PVTZ
  Basis Set: (AUG-CC-PVTZ AUX)
    Blend: AUG-CC-PVTZ-JKFIT + DEF2-UNIVERSAL-JKFIT
  @DF-RHF Final Energy:  -599.01751613981264
    Total Energy =                       -599.0175161398126420
  //            Monomer B HF           //
    Molecular point group: c1

    Geometry (in Angstrom), charge = 0, multiplicity = 1:

       Center              X                  Y                   Z               Mass
    ------------   -----------------  -----------------  -----------------  -----------------
      Gh(K)           0.000000000000     0.000000000000     0.000000000000    38.963706486400
         O            1.071555000000     0.954094000000    -2.190576000000    15.994914619570
         H            0.988044000000     0.627626000000    -3.082246000000     1.007825032230
         H            2.033843000000     1.175330000000    -2.123700000000     1.007825032230
         O            0.274950000000    -2.378870000000     1.386517000000    15.994914619570
         H            1.061758000000    -2.885643000000     1.678485000000     1.007825032230
         H           -0.286488000000    -2.176641000000     2.185497000000     1.007825032230
         O           -2.600308000000    -0.631598000000     1.158703000000    15.994914619570
         H           -3.127240000000     0.272988000000     1.162722000000     1.007825032230
         H           -3.320091000000    -1.304406000000     1.282020000000     1.007825032230
         O            1.663337000000     0.245190000000     1.974484000000    15.994914619570
         H            1.864456000000    -0.680749000000     1.983483000000     1.007825032230
         H            0.980603000000     0.492300000000     2.612029000000     1.007825032230
         O           -1.135864000000     2.411578000000    -0.478100000000    15.994914619570
         H           -1.659332000000     3.079461000000    -0.022507000000     1.007825032230
         H           -0.274050000000     2.843524000000    -0.678120000000     1.007825032230

  Charge       = 0
  Multiplicity = 1
  Basis Set: AUG-CC-PVTZ
    Blend: AUG-CC-PVTZ
  Basis Set: (AUG-CC-PVTZ AUX)
    Blend: AUG-CC-PVTZ-JKFIT + DEF2-UNIVERSAL-JKFIT

    Orbital Energies [Eh]
    ---------------------

    Doubly Occupied:

       1A    -20.564308     2A    -20.558875     3A    -20.550678
       4A    -20.541918     5A    -20.532754     6A     -1.328405
       7A     -1.326181     8A     -1.317277     9A     -1.316729
      10A     -1.310966    11A     -0.706755    12A     -0.695753
      13A     -0.688243    14A     -0.682735    15A     -0.667246
      16A     -0.564830    17A     -0.561969    18A     -0.557258
      19A     -0.549982    20A     -0.543236    21A     -0.497821
      22A     -0.491748    23A     -0.490296    24A     -0.480387
      25A     -0.472702

  @DF-RHF Final Energy:  -380.27298594276942

   => Energetics <=

    Nuclear Repulsion Energy =            172.8566475050601809
    One-Electron Energy =                -870.2611567892765834
    Two-Electron Energy =                 317.1315233414469503
    Total Energy =                       -380.2729859427694237
 Dipole X            :         14.0280354          -14.2658014           -0.2377660
 Dipole Y            :        -11.7464076           11.8050095            0.0586019
 Dipole Z            :        -36.7240346           37.4277021            0.7036675
 Magnitude           :                                                    0.7450602

    SAPT Results
  --------------------------------------------------------------------------------------------------------
    Electrostatics               -105.23749814 [mEh]     -66.03752708 [kcal/mol]    -276.30101329 [kJ/mol]
      Elst10,r                   -109.01456121 [mEh]     -68.40766994 [kcal/mol]    -286.21769101 [kJ/mol]
      Elst12,r                      3.77706307 [mEh]       2.37014286 [kcal/mol]       9.91667772 [kJ/mol]

    Exchange                       49.81842028 [mEh]      31.26153070 [kcal/mol]     130.79824443 [kJ/mol]
      Exch10                       44.79230335 [mEh]      28.10759470 [kcal/mol]     117.60217623 [kJ/mol]
      Exch10(S^2)                  44.64394390 [mEh]      28.01449775 [kcal/mol]     117.21265857 [kJ/mol]
      Exch11(S^2)                  -0.37031982 [mEh]      -0.23237920 [kcal/mol]      -0.97227456 [kJ/mol]
      Exch12(S^2)                   5.39643676 [mEh]       3.38631519 [kcal/mol]      14.16834276 [kJ/mol]

    Induction                     -28.28796618 [mEh]     -17.75096677 [kcal/mol]     -74.27004498 [kJ/mol]
      Ind20,r                     -57.14069271 [mEh]     -35.85632601 [kcal/mol]    -150.02286805 [kJ/mol]
      Ind22                       -10.81240595 [mEh]      -6.78488717 [kcal/mol]     -28.38796792 [kJ/mol]
      Exch-Ind20,r                 34.37306462 [mEh]      21.56942369 [kcal/mol]      90.24646872 [kJ/mol]
      Exch-Ind22                    6.50421811 [mEh]       4.08145849 [kcal/mol]      17.07682230 [kJ/mol]
      delta HF,r (2)               -1.21215025 [mEh]      -0.76063576 [kcal/mol]      -3.18250004 [kJ/mol]

    Dispersion                    -10.98148595 [mEh]      -6.89098647 [kcal/mol]     -28.83188739 [kJ/mol]
      Disp20                      -12.98898140 [mEh]      -8.15070888 [kcal/mol]     -34.10256597 [kJ/mol]
      Disp21                        1.78275282 [mEh]       1.11869428 [kcal/mol]       4.68061687 [kJ/mol]
      Disp22 (SDQ)                 -0.15314777 [mEh]      -0.09610168 [kcal/mol]      -0.40208942 [kJ/mol]
      Disp22 (T)                   -1.36634539 [mEh]      -0.85739468 [kcal/mol]      -3.58733933 [kJ/mol]
      Est. Disp22 (T)              -1.47554223 [mEh]      -0.92591673 [kcal/mol]      -3.87403559 [kJ/mol]
      Exch-Disp20                   1.85343264 [mEh]       1.16304654 [kcal/mol]       4.86618672 [kJ/mol]

  Total HF                        -88.20203620 [mEh]     -55.34761332 [kcal/mol]    -231.57441414 [kJ/mol]
  Total SAPT0                     -99.33758496 [mEh]     -62.33527567 [kcal/mol]    -260.81079339 [kJ/mol]
  Total SAPT2                     -94.84259280 [mEh]     -59.51462550 [kcal/mol]    -249.00919309 [kJ/mol]
  Total SAPT2+                    -94.68852999 [mEh]     -59.41794962 [kcal/mol]    -248.60470123 [kJ/mol]

  Special recipe for scaled SAPT0 (see Manual):
    Electrostatics sSAPT0        -109.01456121 [mEh]     -68.40766994 [kcal/mol]    -286.21769101 [kJ/mol]
    Exchange sSAPT0                44.79230335 [mEh]      28.10759470 [kcal/mol]     117.60217623 [kJ/mol]
    Induction sSAPT0              -23.63595561 [mEh]     -14.83178607 [kcal/mol]     -62.05619291 [kJ/mol]
    Dispersion sSAPT0             -11.11700947 [mEh]      -6.97602876 [kcal/mol]     -29.18770434 [kJ/mol]
  Total sSAPT0                    -98.97522294 [mEh]     -62.10789007 [kcal/mol]    -259.85941203 [kJ/mol]
  --------------------------------------------------------------------------------------------------------

*** Psi4 exiting successfully. Buy a developer a beer!
