                               Psi4 1.9 release

  ==> Input File <==

--------------------------------------------------------------------------
MEMORY 60 GB

molecule dimer {
1 1
K      0.000000     0.000000     0.000000
--
0 1
O     -2.253676    -1.392416     0.421368
H     -3.137956    -1.215387     0.063811
H     -2.021472    -2.191510    -0.025516
O     -0.318217     0.409348    -2.718643
H      0.311346     1.085045    -3.064275
H     -0.323786    -0.455586    -3.131456
O      1.052869    -1.442679     2.266862
H      1.475362    -2.293476     2.206604
H      1.643426    -0.997578     2.931710
O      0.676884    -2.513134    -0.722992
H     -0.026309    -3.165808    -0.916704
H      1.255836    -2.918566    -0.007824

units ang
no_reorient
no_com
symmetry c1
}

set {
basis        aug-cc-pVTZ
scf_type     df
}

energy("sapt2+")
--------------------------------------------------------------------------

  //              Dimer HF             //
    Molecular point group: c1
  Charge       = 1
  Multiplicity = 1
  Basis Set: AUG-CC-PVTZ
    Blend: AUG-CC-PVTZ
  Basis Set: (AUG-CC-PVTZ AUX)
    Blend: AUG-CC-PVTZ-JKFIT + DEF2-UNIVERSAL-JKFIT
  @DF-RHF Final Energy:  -903.31321070965600
    Total Energy =                       -903.3132107096560048
 Dipole X            :         14.7904316          -14.2876013            0.5028303
 Dipole Y            :         95.7564640          -97.6306480           -1.8741840
 Dipole Z            :         14.7028784          -15.0627991           -0.3599207
 Magnitude           :                                                    1.9735620
  //            Monomer A HF           //
    Molecular point group: c1
  Multiplicity = 1
  Basis Set: AUG-CC-PVTZ
    Blend: AUG-CC-PVTZ
  Basis Set: (AUG-CC-PVTZ AUX)
    Blend: AUG-CC-PVTZ-JKFIT + DEF2-UNIVERSAL-JKFIT
  @DF-RHF Final Energy:  -599.01751462165089
    Total Energy =                       -599.0175146216508892
  //            Monomer B HF           //
    Molecular point group: c1

    Geometry (in Angstrom), charge = 0, multiplicity = 1:

       Center              X                  Y                   Z               Mass
    ------------   -----------------  -----------------  -----------------  -----------------
      Gh(K)           0.000000000000     0.000000000000     0.000000000000    38.963706486400
         O           -2.253676000000    -1.392416000000     0.421368000000    15.994914619570
         H           -3.137956000000    -1.215387000000     0.063811000000     1.007825032230
         H           -2.021472000000    -2.191510000000    -0.025516000000     1.007825032230
         O           -0.318217000000     0.409348000000    -2.718643000000    15.994914619570
         H            0.311346000000     1.085045000000    -3.064275000000     1.007825032230
         H           -0.323786000000    -0.455586000000    -3.131456000000     1.007825032230
         O            1.052869000000    -1.442679000000     2.266862000000    15.994914619570
         H            1.475362000000    -2.293476000000     2.206604000000     1.007825032230
         H            1.643426000000    -0.997578000000     2.931710000000     1.007825032230
         O            0.676884000000    -2.513134000000    -0.722992000000    15.994914619570
         H           -0.026309000000    -3.165808000000    -0.916704000000     1.007825032230
         H            1.255836000000    -2.918566000000    -0.007824000000     1.007825032230

  Charge       = 0
  Multiplicity = 1
  Basis Set: AUG-CC-PVTZ
    Blend: AUG-CC-PVTZ
  Basis Set: (AUG-CC-PVTZ AUX)
    Blend: AUG-CC-PVTZ-JKFIT + DEF2-UNIVERSAL-JKFIT

    Orbital Energies [Eh]
    ---------------------

    Doubly Occupied:

       1A    -20.566926     2A    -20.563891     3A    -20.545909
       4A    -20.542682     5A     -1.341624     6A     -1.333461
       7A     -1.329586     8A     -1.316771     9A     -0.712880
      10A     -0.704485    11A     -0.692551    12A     -0.686543
      13A     -0.580226    14A     -0.568033    15A     -0.565201
      16A     -0.535375    17A     -0.505280    18A     -0.497915
      19A     -0.486873    20A     -0.483790

  @DF-RHF Final Energy:  -304.21489518527574

   => Energetics <=

    Nuclear Repulsion Energy =            117.4218779395376799
    One-Electron Energy =                -654.1535382500704827
    Two-Electron Energy =                 232.5167651252570522
    Total Energy =                       -304.2148951852757364
 Dipole X            :         14.8924400          -14.2876013            0.6048388
 Dipole Y            :         96.2665264          -97.6306480           -1.3641216
 Dipole Z            :         14.8081882          -15.0627991           -0.2546109
 Magnitude           :                                                    1.5137650

    SAPT Results
  --------------------------------------------------------------------------------------------------------
    Electrostatics                -87.80918819 [mEh]     -55.10109747 [kcal/mol]    -230.54299183 [kJ/mol]
      Elst10,r                    -91.10140013 [mEh]     -57.16699166 [kcal/mol]    -239.18669310 [kJ/mol]
      Elst12,r                      3.29221194 [mEh]       2.06589419 [kcal/mol]       8.64370127 [kJ/mol]

    Exchange                       33.21318247 [mEh]      20.84158665 [kcal/mol]      87.20119855 [kJ/mol]
      Exch10                       29.59022417 [mEh]      18.56814600 [kcal/mol]      77.68912285 [kJ/mol]
      Exch10(S^2)                  29.49271249 [mEh]      18.50695649 [kcal/mol]      77.43310597 [kJ/mol]
      Exch11(S^2)                  -0.12627406 [mEh]      -0.07923817 [kcal/mol]      -0.33153249 [kJ/mol]
      Exch12(S^2)                   3.74923236 [mEh]       2.35267882 [kcal/mol]       9.84360820 [kJ/mol]

    Induction                     -22.58091554 [mEh]     -14.16973843 [kcal/mol]     -59.28618557 [kJ/mol]
      Ind20,r                     -41.08276141 [mEh]     -25.77982199 [kcal/mol]    -107.86277521 [kJ/mol]
      Ind22                        -7.43265257 [mEh]      -4.66405990 [kcal/mol]     -19.51442663 [kJ/mol]
      Exch-Ind20,r                 22.89125818 [mEh]      14.36448137 [kcal/mol]      60.10099007 [kJ/mol]
      Exch-Ind22                    4.14146379 [mEh]       2.59880777 [kcal/mol]      10.87341169 [kJ/mol]
      delta HF,r (2)               -1.09822353 [mEh]      -0.68914567 [kcal/mol]      -2.88338549 [kJ/mol]

    Dispersion                     -7.80371001 [mEh]      -4.89690196 [kcal/mol]     -20.48863780 [kJ/mol]
      Disp20                       -9.06280534 [mEh]      -5.68699621 [kcal/mol]     -23.79439213 [kJ/mol]
      Disp21                        1.23007599 [mEh]       0.77188434 [kcal/mol]       3.22956407 [kJ/mol]
      Disp22 (SDQ)                 -0.11975927 [mEh]      -0.07515007 [kcal/mol]      -0.31442791 [kJ/mol]
      Disp22 (T)                   -0.93913389 [mEh]      -0.58931541 [kcal/mol]      -2.46569569 [kJ/mol]
      Est. Disp22 (T)              -1.01974114 [mEh]      -0.63989723 [kcal/mol]      -2.67733001 [kJ/mol]
      Exch-Disp20                   1.16851975 [mEh]       0.73325721 [kcal/mol]       3.06794818 [kJ/mol]

  Total HF                        -80.80090273 [mEh]     -50.70333195 [kcal/mol]    -212.14274089 [kJ/mol]
  Total SAPT0                     -88.69518832 [mEh]     -55.65707095 [kcal/mol]    -232.86918484 [kJ/mol]
  Total SAPT2                     -85.07120685 [mEh]     -53.38298824 [kcal/mol]    -223.35442280 [kJ/mol]
  Total SAPT2+                    -84.98063127 [mEh]     -53.32615121 [kcal/mol]    -223.11661665 [kJ/mol]

  Special recipe for scaled SAPT0 (see Manual):
    Electrostatics sSAPT0         -91.10140013 [mEh]     -57.16699166 [kcal/mol]    -239.18669310 [kJ/mol]
    Exchange sSAPT0                29.59022417 [mEh]      18.56814600 [kcal/mol]      77.68912285 [kJ/mol]
    Induction sSAPT0              -19.06191929 [mEh]     -11.96153495 [kcal/mol]     -50.04706221 [kJ/mol]
    Dispersion sSAPT0              -7.88265680 [mEh]      -4.94644182 [kcal/mol]     -20.69591258 [kJ/mol]
  Total sSAPT0                    -88.45575206 [mEh]     -55.50682243 [kcal/mol]    -232.24054505 [kJ/mol]
  --------------------------------------------------------------------------------------------------------

*** Psi4 exiting successfully. Buy a developer a beer!
