                               Psi4 1.9 release

  ==> Input File <==

--------------------------------------------------------------------------
MEMORY 60 GB

molecule dimer {
1 1
K      0.000000     0.000000     0.000000
--
0 1
O     -2.086159     0.979793     1.589776
H     -3.028814     0.766582     1.420076
H     -2.127653     1.886064     2.042990
O      0.522655     2.710535    -1.289778
H      0.985976     3.405292    -0.819517
H      1.081618     2.477180    -2.000586
O      2.168619     1.148467     1.439584
H      3.065140     0.771014     1.316407
H      2.175125     2.118851     1.463488
O     -0.693986    -0.163464    -2.667068
H     -1.335091    -0.843039    -2.905198
H     -0.999391     0.564417    -3.233427
O     -1.675477    -1.828136     0.355903
H     -2.093235    -2.067337    -0.492620
H     -1.684285    -2.549478     0.982289

units ang
no_reorient
no_com
symmetry c1
}

set {
basis        aug-cc-pVTZ
scf_type     df
}

energy("sapt2+")
--------------------------------------------------------------------------

  //              Dimer HF             //
    Molecular point group: c1
  Charge       = 1
  Multiplicity = 1
  Basis Set: AUG-CC-PVTZ
    Blend: AUG-CC-PVTZ
  Basis Set: (AUG-CC-PVTZ AUX)
    Blend: AUG-CC-PVTZ-JKFIT + DEF2-UNIVERSAL-JKFIT
  @DF-RHF Final Energy:  -979.39419023258654
    Total Energy =                       -979.3941902325865385
 Dipole X            :         33.7005296          -34.1575443           -0.4570147
 Dipole Y            :        -54.7337666           55.3824039            0.6486373
 Dipole Z            :         12.1255740          -12.8477982           -0.7222242
 Magnitude           :                                                    1.0729401
  //            Monomer A HF           //
    Molecular point group: c1
  Multiplicity = 1
  Basis Set: AUG-CC-PVTZ
    Blend: AUG-CC-PVTZ
  Basis Set: (AUG-CC-PVTZ AUX)
    Blend: AUG-CC-PVTZ-JKFIT + DEF2-UNIVERSAL-JKFIT
  @DF-RHF Final Energy:  -599.01751554124712
    Total Energy =                       -599.0175155412472350
  //            Monomer B HF           //
    Molecular point group: c1

    Geometry (in Angstrom), charge = 0, multiplicity = 1:

       Center              X                  Y                   Z               Mass
    ------------   -----------------  -----------------  -----------------  -----------------
      Gh(K)           0.000000000000     0.000000000000     0.000000000000    38.963706486400
         O           -2.086159000000     0.979793000000     1.589776000000    15.994914619570
         H           -3.028814000000     0.766582000000     1.420076000000     1.007825032230
         H           -2.127653000000     1.886064000000     2.042990000000     1.007825032230
         O            0.522655000000     2.710535000000    -1.289778000000    15.994914619570
         H            0.985976000000     3.405292000000    -0.819517000000     1.007825032230
         H            1.081618000000     2.477180000000    -2.000586000000     1.007825032230
         O            2.168619000000     1.148467000000     1.439584000000    15.994914619570
         H            3.065140000000     0.771014000000     1.316407000000     1.007825032230
         H            2.175125000000     2.118851000000     1.463488000000     1.007825032230
         O           -0.693986000000    -0.163464000000    -2.667068000000    15.994914619570
         H           -1.335091000000    -0.843039000000    -2.905198000000     1.007825032230
         H           -0.999391000000     0.564417000000    -3.233427000000     1.007825032230
         O           -1.675477000000    -1.828136000000     0.355903000000    15.994914619570
         H           -2.093235000000    -2.067337000000    -0.492620000000     1.007825032230
         H           -1.684285000000    -2.549478000000     0.982289000000     1.007825032230

  Charge       = 0
  Multiplicity = 1
  Basis Set: AUG-CC-PVTZ
    Blend: AUG-CC-PVTZ
  Basis Set: (AUG-CC-PVTZ AUX)
    Blend: AUG-CC-PVTZ-JKFIT + DEF2-UNIVERSAL-JKFIT

    Orbital Energies [Eh]
    ---------------------

    Doubly Occupied:

       1A    -20.553543     2A    -20.545361     3A    -20.545128
       4A    -20.539057     5A    -20.538948     6A     -1.339666
       7A     -1.333890     8A     -1.318092     9A     -1.317369
      10A     -1.298410    11A     -0.707600    12A     -0.702155
      13A     -0.700180    14A     -0.685527    15A     -0.658415
      16A     -0.572960    17A     -0.564192    18A     -0.547640
      19A     -0.542483    20A     -0.531665    21A     -0.494158
      22A     -0.492422    23A     -0.480990    24A     -0.480409
      25A     -0.470718

  @DF-RHF Final Energy:  -380.27404031690691

   => Energetics <=

    Nuclear Repulsion Energy =            170.5063120937697363
    One-Electron Energy =                -865.6387417670769082
    Two-Electron Energy =                 314.8583893564002096
    Total Energy =                       -380.2740403169069054
 Dipole X            :         33.9538451          -34.1575443           -0.2036992
 Dipole Y            :        -54.9118562           55.3824039            0.4705477
 Dipole Z            :         12.1526806          -12.8477982           -0.6951175
 Magnitude           :                                                    0.8637690

    SAPT Results
  --------------------------------------------------------------------------------------------------------
    Electrostatics               -111.33366134 [mEh]     -69.86292724 [kcal/mol]    -292.30648757 [kJ/mol]
      Elst10,r                   -116.81478264 [mEh]     -73.30238278 [kcal/mol]    -306.69716957 [kJ/mol]
      Elst12,r                      5.48112130 [mEh]       3.43945555 [kcal/mol]      14.39068200 [kJ/mol]

    Exchange                       40.69711607 [mEh]      25.53782589 [kcal/mol]     106.85026351 [kJ/mol]
      Exch10                       36.93912791 [mEh]      23.17965272 [kcal/mol]      96.98366697 [kJ/mol]
      Exch10(S^2)                  36.78898996 [mEh]      23.08543973 [kcal/mol]      96.58947982 [kJ/mol]
      Exch11(S^2)                  -0.19273102 [mEh]      -0.12094054 [kcal/mol]      -0.50601523 [kJ/mol]
      Exch12(S^2)                   3.95071918 [mEh]       2.47911371 [kcal/mol]      10.37261178 [kJ/mol]

    Induction                     -26.37452724 [mEh]     -16.55026571 [kcal/mol]     -69.24631172 [kJ/mol]
      Ind20,r                     -48.43537114 [mEh]     -30.39365426 [kcal/mol]    -127.16704941 [kJ/mol]
      Ind22                        -8.07489645 [mEh]      -5.06707402 [kcal/mol]     -21.20063771 [kJ/mol]
      Exch-Ind20,r                 26.74679829 [mEh]      16.78386932 [kcal/mol]      70.22370922 [kJ/mol]
      Exch-Ind22                    4.45908891 [mEh]       2.79812054 [kcal/mol]      11.70733633 [kJ/mol]
      delta HF,r (2)               -1.07014685 [mEh]      -0.67152728 [kcal/mol]      -2.80967016 [kJ/mol]

    Dispersion                     -9.49063966 [mEh]      -5.95546630 [kcal/mol]     -24.91767098 [kJ/mol]
      Disp20                      -11.14827951 [mEh]      -6.99565101 [kcal/mol]     -29.26980382 [kJ/mol]
      Disp21                        1.56331356 [mEh]       0.98099407 [kcal/mol]       4.10447920 [kJ/mol]
      Disp22 (SDQ)                 -0.12589433 [mEh]      -0.07899988 [kcal/mol]      -0.33053551 [kJ/mol]
      Disp22 (T)                   -1.14412541 [mEh]      -0.71794953 [kcal/mol]      -3.00390085 [kJ/mol]
      Est. Disp22 (T)              -1.24231057 [mEh]      -0.77956165 [kcal/mol]      -3.26168594 [kJ/mol]
      Exch-Disp20                   1.46253119 [mEh]       0.91775218 [kcal/mol]       3.83987510 [kJ/mol]

  Total HF                       -102.63437443 [mEh]     -64.40404229 [kcal/mol]    -269.46651295 [kJ/mol]
  Total SAPT0                    -112.32012276 [mEh]     -70.48194113 [kcal/mol]    -294.89644167 [kJ/mol]
  Total SAPT2                    -106.69682083 [mEh]     -66.95326589 [kcal/mol]    -280.13246450 [kJ/mol]
  Total SAPT2+                   -106.50171216 [mEh]     -66.83083336 [kcal/mol]    -279.62020676 [kJ/mol]

  Special recipe for scaled SAPT0 (see Manual):
    Electrostatics sSAPT0        -116.81478264 [mEh]     -73.30238278 [kcal/mol]    -306.69716957 [kJ/mol]
    Exchange sSAPT0                36.93912791 [mEh]      23.17965272 [kcal/mol]      96.98366697 [kJ/mol]
    Induction sSAPT0              -22.42991588 [mEh]     -14.07498471 [kcal/mol]     -58.88973603 [kJ/mol]
    Dispersion sSAPT0              -9.66776913 [mEh]      -6.06661672 [kcal/mol]     -25.38272436 [kJ/mol]
  Total sSAPT0                   -111.97333974 [mEh]     -70.26433150 [kcal/mol]    -293.98596299 [kJ/mol]
  --------------------------------------------------------------------------------------------------------

*** Psi4 exiting successfully. Buy a developer a beer!
