                               Psi4 1.9 release

  ==> Input File <==

--------------------------------------------------------------------------
MEMORY 60 GB

molecule dimer {
1 1
K      0.000000     0.000000     0.000000
--
0 1
O     -1.997620    -2.162061    -0.813178
H     -2.773802    -1.606737    -0.549995
H     -1.592061    -2.558739    -0.032556
O      0.414858    -0.225799    -2.631086
H      1.352700    -0.013745    -2.767381
H      0.050193    -0.688976    -3.401864
O     -2.631714     0.983286    -0.637732
H     -3.404075     1.007670    -0.141584
H     -2.832941     1.458279    -1.450706
O      1.202232    -0.677975     2.440207
H      2.075392    -1.063868     2.278000
H      0.927402    -1.109896     3.256085
O     -0.234521    -2.746344     1.303637
H     -0.487511    -2.096140     1.982125
H      0.699833    -2.781795     1.295536
O      0.306745     2.542586     1.554188
H      0.463644     2.471048     2.452764
H     -0.325900     3.267043     1.361577

units ang
no_reorient
no_com
symmetry c1
}

set {
basis        aug-cc-pVTZ
scf_type     df
}

energy("sapt2+")
--------------------------------------------------------------------------

  //              Dimer HF             //
    Molecular point group: c1
  Charge       = 1
  Multiplicity = 1
  Basis Set: AUG-CC-PVTZ
    Blend: AUG-CC-PVTZ
  Basis Set: (AUG-CC-PVTZ AUX)
    Blend: AUG-CC-PVTZ-JKFIT + DEF2-UNIVERSAL-JKFIT
  @DF-RHF Final Energy: -1055.45044152365335
    Total Energy =                      -1055.4504415236533532
 Dipole X            :         55.5238653          -55.4961276            0.0277377
 Dipole Y            :         42.1510703          -41.5859027            0.5651676
 Dipole Z            :        -25.1465194           26.4756091            1.3290898
 Magnitude           :                                                    1.4445288
  //            Monomer A HF           //
    Molecular point group: c1
  Multiplicity = 1
  Basis Set: AUG-CC-PVTZ
    Blend: AUG-CC-PVTZ
  Basis Set: (AUG-CC-PVTZ AUX)
    Blend: AUG-CC-PVTZ-JKFIT + DEF2-UNIVERSAL-JKFIT
  @DF-RHF Final Energy:  -599.01751641827832
    Total Energy =                       -599.0175164182783192
  //            Monomer B HF           //
    Molecular point group: c1

    Geometry (in Angstrom), charge = 0, multiplicity = 1:

       Center              X                  Y                   Z               Mass
    ------------   -----------------  -----------------  -----------------  -----------------
      Gh(K)           0.000000000000     0.000000000000     0.000000000000    38.963706486400
         O           -1.997620000000    -2.162061000000    -0.813178000000    15.994914619570
         H           -2.773802000000    -1.606737000000    -0.549995000000     1.007825032230
         H           -1.592061000000    -2.558739000000    -0.032556000000     1.007825032230
         O            0.414858000000    -0.225799000000    -2.631086000000    15.994914619570
         H            1.352700000000    -0.013745000000    -2.767381000000     1.007825032230
         H            0.050193000000    -0.688976000000    -3.401864000000     1.007825032230
         O           -2.631714000000     0.983286000000    -0.637732000000    15.994914619570
         H           -3.404075000000     1.007670000000    -0.141584000000     1.007825032230
         H           -2.832941000000     1.458279000000    -1.450706000000     1.007825032230
         O            1.202232000000    -0.677975000000     2.440207000000    15.994914619570
         H            2.075392000000    -1.063868000000     2.278000000000     1.007825032230
         H            0.927402000000    -1.109896000000     3.256085000000     1.007825032230
         O           -0.234521000000    -2.746344000000     1.303637000000    15.994914619570
         H           -0.487511000000    -2.096140000000     1.982125000000     1.007825032230
         H            0.699833000000    -2.781795000000     1.295536000000     1.007825032230
         O            0.306745000000     2.542586000000     1.554188000000    15.994914619570
         H            0.463644000000     2.471048000000     2.452764000000     1.007825032230
         H           -0.325900000000     3.267043000000     1.361577000000     1.007825032230

  Charge       = 0
  Multiplicity = 1
  Basis Set: AUG-CC-PVTZ
    Blend: AUG-CC-PVTZ
  Basis Set: (AUG-CC-PVTZ AUX)
    Blend: AUG-CC-PVTZ-JKFIT + DEF2-UNIVERSAL-JKFIT

    Orbital Energies [Eh]
    ---------------------

    Doubly Occupied:

       1A    -20.581132     2A    -20.553059     3A    -20.546570
       4A    -20.540379     5A    -20.535254     6A    -20.500271
       7A     -1.368192     8A     -1.345785     9A     -1.345042
      10A     -1.332766    11A     -1.310770    12A     -1.275490
      13A     -0.730232    14A     -0.713686    15A     -0.712926
      16A     -0.712448    17A     -0.690154    18A     -0.662855
      19A     -0.599116    20A     -0.586397    21A     -0.566978
      22A     -0.550036    23A     -0.536575    24A     -0.522144
      25A     -0.505650    26A     -0.495407    27A     -0.494558
      28A     -0.486356    29A     -0.475176    30A     -0.440435

  @DF-RHF Final Energy:  -456.34064790118930

   => Energetics <=

    Nuclear Repulsion Energy =            246.1290768668999362
    One-Electron Energy =               -1121.5077615244113076
    Two-Electron Energy =                 419.0380367563220716
    Total Energy =                       -456.3406479011892998
 Dipole X            :         55.7616853          -55.4961276            0.2655577
 Dipole Y            :         42.2751143          -41.5859027            0.6892116
 Dipole Z            :        -25.1424301           26.4756091            1.3331790
 Magnitude           :                                                    1.5241063

    SAPT Results
  --------------------------------------------------------------------------------------------------------
    Electrostatics                -91.54409365 [mEh]     -57.44478603 [kcal/mol]    -240.34898477 [kJ/mol]
      Elst10,r                    -95.63033914 [mEh]     -60.00894379 [kcal/mol]    -251.07742082 [kJ/mol]
      Elst12,r                      4.08624549 [mEh]       2.56415776 [kcal/mol]      10.72843605 [kJ/mol]

    Exchange                       29.46910667 [mEh]      18.49214362 [kcal/mol]      77.37112890 [kJ/mol]
      Exch10                       26.00309945 [mEh]      16.31719125 [kcal/mol]      68.27112820 [kJ/mol]
      Exch10(S^2)                  25.96370232 [mEh]      16.29246918 [kcal/mol]      68.16769105 [kJ/mol]
      Exch11(S^2)                  -0.19107844 [mEh]      -0.11990353 [kcal/mol]      -0.50167637 [kJ/mol]
      Exch12(S^2)                   3.65708565 [mEh]       2.29485589 [kcal/mol]       9.60167706 [kJ/mol]

    Induction                     -26.61008440 [mEh]     -16.69808006 [kcal/mol]     -69.86476696 [kJ/mol]
      Ind20,r                     -40.50827337 [mEh]     -25.41932531 [kcal/mol]    -106.35445709 [kJ/mol]
      Ind22                        -7.41628019 [mEh]      -4.65378608 [kcal/mol]     -19.47144096 [kJ/mol]
      Exch-Ind20,r                 18.87780428 [mEh]      11.84600103 [kcal/mol]      49.56366830 [kJ/mol]
      Exch-Ind22                    3.45616029 [mEh]       2.16877333 [kcal/mol]       9.07414760 [kJ/mol]
      delta HF,r (2)               -1.01949540 [mEh]      -0.63974302 [kcal/mol]      -2.67668480 [kJ/mol]

    Dispersion                     -9.03789824 [mEh]      -5.67136677 [kcal/mol]     -23.72899855 [kJ/mol]
      Disp20                      -10.26307828 [mEh]      -6.44017885 [kcal/mol]     -26.94570830 [kJ/mol]
      Disp21                        1.44907189 [mEh]       0.90930634 [kcal/mol]       3.80453774 [kJ/mol]
      Disp22 (SDQ)                 -0.14515157 [mEh]      -0.09108398 [kcal/mol]      -0.38109539 [kJ/mol]
      Disp22 (T)                   -1.10573686 [mEh]      -0.69386036 [kcal/mol]      -2.90311173 [kJ/mol]
      Est. Disp22 (T)              -1.18657973 [mEh]      -0.74459002 [kcal/mol]      -3.11536465 [kJ/mol]
      Exch-Disp20                   1.10783945 [mEh]       0.69517975 [kcal/mol]       2.90863206 [kJ/mol]

  Total HF                        -92.27720419 [mEh]     -57.90481984 [kcal/mol]    -242.27376621 [kJ/mol]
  Total SAPT0                    -101.43244302 [mEh]     -63.64981894 [kcal/mol]    -266.31084245 [kJ/mol]
  Total SAPT2                     -97.84031021 [mEh]     -61.39572158 [kcal/mol]    -256.87969907 [kJ/mol]
  Total SAPT2+                    -97.72296962 [mEh]     -61.32208924 [kcal/mol]    -256.57162138 [kJ/mol]

  Special recipe for scaled SAPT0 (see Manual):
    Electrostatics sSAPT0         -95.63033914 [mEh]     -60.00894379 [kcal/mol]    -251.07742082 [kJ/mol]
    Exchange sSAPT0                26.00309945 [mEh]      16.31719125 [kcal/mol]      68.27112820 [kJ/mol]
    Induction sSAPT0              -22.56389891 [mEh]     -14.15906033 [kcal/mol]     -59.24150842 [kJ/mol]
    Dispersion sSAPT0              -9.15018809 [mEh]      -5.74182972 [kcal/mol]     -24.02381553 [kJ/mol]
  Total sSAPT0                   -101.34132669 [mEh]     -63.59264258 [kcal/mol]    -266.07161657 [kJ/mol]
  --------------------------------------------------------------------------------------------------------

*** Psi4 exiting successfully. Buy a developer a beer!
