                               Psi4 1.9 release

  ==> Input File <==

--------------------------------------------------------------------------
MEMORY 60 GB

molecule dimer {
1 1
K      0.000000     0.000000     0.000000
--
0 1
O     -1.653313    -1.051616     1.936869
H     -2.526557    -0.873487     1.449054
H     -1.779450    -0.761161     2.807517
O     -2.044736    -1.095313    -1.390693
H     -2.246528    -2.079962    -1.231368
H     -2.476560    -0.777780    -2.210273
O     -0.390290     2.428068    -1.109074
H     -0.638411     2.714222    -0.228935
H     -0.928560     2.744767    -1.830555
O      2.661841    -0.753804    -0.332134
H      2.712180    -1.521938    -0.975578
H      3.496474    -0.827065     0.075169
O      0.849537     0.318983     2.782234
H      0.338813    -0.012639     3.567669
H      0.431354     1.159593     2.522927
O      0.745160    -1.502289    -2.481552
H      1.369940    -1.936199    -3.034574
H      0.164672    -2.234902    -2.237506

units ang
no_reorient
no_com
symmetry c1
}

set {
basis        aug-cc-pVTZ
scf_type     df
}

energy("sapt2+")
--------------------------------------------------------------------------

  //              Dimer HF             //
    Molecular point group: c1
  Charge       = 1
  Multiplicity = 1
  Basis Set: AUG-CC-PVTZ
    Blend: AUG-CC-PVTZ
  Basis Set: (AUG-CC-PVTZ AUX)
    Blend: AUG-CC-PVTZ-JKFIT + DEF2-UNIVERSAL-JKFIT
  @DF-RHF Final Energy: -1055.43638275298758
    Total Energy =                      -1055.4363827529875834
 Dipole X            :         -0.2600746           -1.3928056           -1.6528802
 Dipole Y            :         32.5699618          -33.3618278           -0.7918660
 Dipole Z            :         11.2218432          -11.4919027           -0.2700594
 Magnitude           :                                                    1.8525650
  //            Monomer A HF           //
    Molecular point group: c1
  Multiplicity = 1
  Basis Set: AUG-CC-PVTZ
    Blend: AUG-CC-PVTZ
  Basis Set: (AUG-CC-PVTZ AUX)
    Blend: AUG-CC-PVTZ-JKFIT + DEF2-UNIVERSAL-JKFIT
  @DF-RHF Final Energy:  -599.01751692968855
    Total Energy =                       -599.0175169296885542
  //            Monomer B HF           //
    Molecular point group: c1

    Geometry (in Angstrom), charge = 0, multiplicity = 1:

       Center              X                  Y                   Z               Mass
    ------------   -----------------  -----------------  -----------------  -----------------
      Gh(K)           0.000000000000     0.000000000000     0.000000000000    38.963706486400
         O           -1.653313000000    -1.051616000000     1.936869000000    15.994914619570
         H           -2.526557000000    -0.873487000000     1.449054000000     1.007825032230
         H           -1.779450000000    -0.761161000000     2.807517000000     1.007825032230
         O           -2.044736000000    -1.095313000000    -1.390693000000    15.994914619570
         H           -2.246528000000    -2.079962000000    -1.231368000000     1.007825032230
         H           -2.476560000000    -0.777780000000    -2.210273000000     1.007825032230
         O           -0.390290000000     2.428068000000    -1.109074000000    15.994914619570
         H           -0.638411000000     2.714222000000    -0.228935000000     1.007825032230
         H           -0.928560000000     2.744767000000    -1.830555000000     1.007825032230
         O            2.661841000000    -0.753804000000    -0.332134000000    15.994914619570
         H            2.712180000000    -1.521938000000    -0.975578000000     1.007825032230
         H            3.496474000000    -0.827065000000     0.075169000000     1.007825032230
         O            0.849537000000     0.318983000000     2.782234000000    15.994914619570
         H            0.338813000000    -0.012639000000     3.567669000000     1.007825032230
         H            0.431354000000     1.159593000000     2.522927000000     1.007825032230
         O            0.745160000000    -1.502289000000    -2.481552000000    15.994914619570
         H            1.369940000000    -1.936199000000    -3.034574000000     1.007825032230
         H            0.164672000000    -2.234902000000    -2.237506000000     1.007825032230

  Charge       = 0
  Multiplicity = 1
  Basis Set: AUG-CC-PVTZ
    Blend: AUG-CC-PVTZ
  Basis Set: (AUG-CC-PVTZ AUX)
    Blend: AUG-CC-PVTZ-JKFIT + DEF2-UNIVERSAL-JKFIT

    Orbital Energies [Eh]
    ---------------------

    Doubly Occupied:

       1A    -20.562221     2A    -20.549551     3A    -20.544425
       4A    -20.542562     5A    -20.537196     6A    -20.525531
       7A     -1.336257     8A     -1.329700     9A     -1.321657
      10A     -1.320973    11A     -1.310746    12A     -1.307452
      13A     -0.716342    14A     -0.701667    15A     -0.695436
      16A     -0.690758    17A     -0.677587    18A     -0.659682
      19A     -0.566938    20A     -0.558984    21A     -0.553209
      22A     -0.548165    23A     -0.542651    24A     -0.535413
      25A     -0.498761    26A     -0.495684    27A     -0.485598
      28A     -0.481701    29A     -0.471795    30A     -0.464858

  @DF-RHF Final Energy:  -456.31807330113298

   => Energetics <=

    Nuclear Repulsion Energy =            244.0662427099786953
    One-Electron Energy =               -1117.7016235474818586
    Two-Electron Energy =                 417.3173075363701514
    Total Energy =                       -456.3180733011329835
 Dipole X            :         -0.2185587           -1.3928056           -1.6113643
 Dipole Y            :         32.7407015          -33.3618278           -0.6211264
 Dipole Z            :         11.3060845          -11.4919027           -0.1858181
 Magnitude           :                                                    1.7368999

    SAPT Results
  --------------------------------------------------------------------------------------------------------
    Electrostatics               -104.63897298 [mEh]     -65.66194687 [kcal/mol]    -274.72958571 [kJ/mol]
      Elst10,r                   -110.17536804 [mEh]     -69.13608722 [kcal/mol]    -289.26538895 [kJ/mol]
      Elst12,r                      5.53639506 [mEh]       3.47414035 [kcal/mol]      14.53580324 [kJ/mol]

    Exchange                       38.76458490 [mEh]      24.32514427 [kcal/mol]     101.77640364 [kJ/mol]
      Exch10                       34.66543624 [mEh]      21.75288965 [kcal/mol]      91.01409030 [kJ/mol]
      Exch10(S^2)                  34.62029564 [mEh]      21.72456350 [kcal/mol]      90.89557368 [kJ/mol]
      Exch11(S^2)                  -0.31463070 [mEh]      -0.19743375 [kcal/mol]      -0.82606279 [kJ/mol]
      Exch12(S^2)                   4.41377937 [mEh]       2.76968837 [kcal/mol]      11.58837613 [kJ/mol]

    Induction                     -29.61463967 [mEh]     -18.58346696 [kcal/mol]     -77.75322575 [kJ/mol]
      Ind20,r                     -48.71321590 [mEh]     -30.56800448 [kcal/mol]    -127.89653073 [kJ/mol]
      Ind22                        -8.77207229 [mEh]      -5.50455847 [kcal/mol]     -23.03107262 [kJ/mol]
      Exch-Ind20,r                 24.65640851 [mEh]      15.47212993 [kcal/mol]      64.73539164 [kJ/mol]
      Exch-Ind22                    4.44002298 [mEh]       2.78615648 [kcal/mol]      11.65727872 [kJ/mol]
      delta HF,r (2)               -1.22578297 [mEh]      -0.76919043 [kcal/mol]      -3.21829275 [kJ/mol]

    Dispersion                    -10.74210148 [mEh]      -6.74077045 [kcal/mol]     -28.20338356 [kJ/mol]
      Disp20                      -12.43513020 [mEh]      -7.80316201 [kcal/mol]     -32.64842985 [kJ/mol]
      Disp21                        1.79479582 [mEh]       1.12625138 [kcal/mol]       4.71223577 [kJ/mol]
      Disp22 (SDQ)                 -0.15447544 [mEh]      -0.09693480 [kcal/mol]      -0.40557521 [kJ/mol]
      Disp22 (T)                   -1.32848859 [mEh]      -0.83363917 [kcal/mol]      -3.48794631 [kJ/mol]
      Est. Disp22 (T)              -1.42768696 [mEh]      -0.89588710 [kcal/mol]      -3.74839161 [kJ/mol]
      Exch-Disp20                   1.48039530 [mEh]       0.92896208 [kcal/mol]       3.88677733 [kJ/mol]

  Total HF                       -100.79252217 [mEh]     -63.24826255 [kcal/mol]    -264.63073049 [kJ/mol]
  Total SAPT0                    -111.74725706 [mEh]     -70.12246248 [kcal/mol]    -293.39238300 [kJ/mol]
  Total SAPT2                    -106.44376265 [mEh]     -66.79446949 [kcal/mol]    -279.46806034 [kJ/mol]
  Total SAPT2+                   -106.23112924 [mEh]     -66.66104001 [kcal/mol]    -278.90979138 [kJ/mol]

  Special recipe for scaled SAPT0 (see Manual):
    Electrostatics sSAPT0        -110.17536804 [mEh]     -69.13608722 [kcal/mol]    -289.26538895 [kJ/mol]
    Exchange sSAPT0                34.66543624 [mEh]      21.75288965 [kcal/mol]      91.01409030 [kJ/mol]
    Induction sSAPT0              -25.18601780 [mEh]     -15.80446478 [kcal/mol]     -66.12588063 [kJ/mol]
    Dispersion sSAPT0             -10.94893659 [mEh]      -6.87056144 [kcal/mol]     -28.74642905 [kJ/mol]
  Total sSAPT0                   -111.64488619 [mEh]     -70.05822379 [kcal/mol]    -293.12360832 [kJ/mol]
  --------------------------------------------------------------------------------------------------------

*** Psi4 exiting successfully. Buy a developer a beer!
