                               Psi4 1.9 release

  ==> Input File <==

--------------------------------------------------------------------------
MEMORY 60 GB

molecule dimer {
1 1
K      0.000000     0.000000     0.000000
--
0 1
O      1.049228    -1.669034    -1.809341
H      0.923341    -2.503424    -2.246637
H      1.822074    -1.314072    -2.217799
O      0.777158     2.541027     1.485150
H     -0.123721     2.501866     1.834386
H      1.422271     2.295998     2.224463
O     -1.106748    -2.271704     0.894727
H     -1.448829    -2.837095     0.154476
H     -1.856099    -1.950414     1.369169
O     -2.252317     0.862623    -0.772996
H     -2.036068     1.820633    -0.928033
H     -2.394966     0.348962    -1.611608
O      0.750638     2.227854    -1.391270
H      0.979748     2.389688    -2.328740
H      1.502881     2.481555    -0.734025
O     -0.867467    -0.146222     2.839508
H     -1.441843    -0.931366     3.114854
H     -0.010479    -0.244914     3.268704

units ang
no_reorient
no_com
symmetry c1
}

set {
basis        aug-cc-pVTZ
scf_type     df
}

energy("sapt2+")
--------------------------------------------------------------------------

  //              Dimer HF             //
    Molecular point group: c1
  Charge       = 1
  Multiplicity = 1
  Basis Set: AUG-CC-PVTZ
    Blend: AUG-CC-PVTZ
  Basis Set: (AUG-CC-PVTZ AUX)
    Blend: AUG-CC-PVTZ-JKFIT + DEF2-UNIVERSAL-JKFIT
  @DF-RHF Final Energy: -1055.43745678430014
    Total Energy =                      -1055.4374567843001387
 Dipole X            :         30.2724783          -29.9668120            0.3056663
 Dipole Y            :        -27.8264598           27.2380758           -0.5883840
 Dipole Z            :        -22.7988872           22.4224206           -0.3764666
 Magnitude           :                                                    0.7624662
  //            Monomer A HF           //
    Molecular point group: c1
  Multiplicity = 1
  Basis Set: AUG-CC-PVTZ
    Blend: AUG-CC-PVTZ
  Basis Set: (AUG-CC-PVTZ AUX)
    Blend: AUG-CC-PVTZ-JKFIT + DEF2-UNIVERSAL-JKFIT
  @DF-RHF Final Energy:  -599.01751728072566
    Total Energy =                       -599.0175172807257695
  //            Monomer B HF           //
    Molecular point group: c1

    Geometry (in Angstrom), charge = 0, multiplicity = 1:

       Center              X                  Y                   Z               Mass
    ------------   -----------------  -----------------  -----------------  -----------------
      Gh(K)           0.000000000000     0.000000000000     0.000000000000    38.963706486400
         O            1.049228000000    -1.669034000000    -1.809341000000    15.994914619570
         H            0.923341000000    -2.503424000000    -2.246637000000     1.007825032230
         H            1.822074000000    -1.314072000000    -2.217799000000     1.007825032230
         O            0.777158000000     2.541027000000     1.485150000000    15.994914619570
         H           -0.123721000000     2.501866000000     1.834386000000     1.007825032230
         H            1.422271000000     2.295998000000     2.224463000000     1.007825032230
         O           -1.106748000000    -2.271704000000     0.894727000000    15.994914619570
         H           -1.448829000000    -2.837095000000     0.154476000000     1.007825032230
         H           -1.856099000000    -1.950414000000     1.369169000000     1.007825032230
         O           -2.252317000000     0.862623000000    -0.772996000000    15.994914619570
         H           -2.036068000000     1.820633000000    -0.928033000000     1.007825032230
         H           -2.394966000000     0.348962000000    -1.611608000000     1.007825032230
         O            0.750638000000     2.227854000000    -1.391270000000    15.994914619570
         H            0.979748000000     2.389688000000    -2.328740000000     1.007825032230
         H            1.502881000000     2.481555000000    -0.734025000000     1.007825032230
         O           -0.867467000000    -0.146222000000     2.839508000000    15.994914619570
         H           -1.441843000000    -0.931366000000     3.114854000000     1.007825032230
         H           -0.010479000000    -0.244914000000     3.268704000000     1.007825032230

  Charge       = 0
  Multiplicity = 1
  Basis Set: AUG-CC-PVTZ
    Blend: AUG-CC-PVTZ
  Basis Set: (AUG-CC-PVTZ AUX)
    Blend: AUG-CC-PVTZ-JKFIT + DEF2-UNIVERSAL-JKFIT

    Orbital Energies [Eh]
    ---------------------

    Doubly Occupied:

       1A    -20.555240     2A    -20.552553     3A    -20.547445
       4A    -20.540084     5A    -20.538032     6A    -20.529542
       7A     -1.341246     8A     -1.325365     9A     -1.319026
      10A     -1.317221    11A     -1.293780    12A     -1.290291
      13A     -0.705541    14A     -0.703583    15A     -0.691616
      16A     -0.681549    17A     -0.677759    18A     -0.674659
      19A     -0.567810    20A     -0.561117    21A     -0.552737
      22A     -0.549903    23A     -0.529866    24A     -0.520749
      25A     -0.492637    26A     -0.491843    27A     -0.489112
      28A     -0.479069    29A     -0.471545    30A     -0.463795

  @DF-RHF Final Energy:  -456.32323420868778

   => Energetics <=

    Nuclear Repulsion Energy =            248.0542930386014291
    One-Electron Energy =               -1125.8456182495158373
    Two-Electron Energy =                 421.4680910022266858
    Total Energy =                       -456.3232342086877793
 Dipole X            :         30.4630068          -29.9668120            0.4961948
 Dipole Y            :        -27.8734828           27.2380758           -0.6354070
 Dipole Z            :        -22.7555759           22.4224206           -0.3331552
 Magnitude           :                                                    0.8723209

    SAPT Results
  --------------------------------------------------------------------------------------------------------
    Electrostatics               -116.43722167 [mEh]     -73.06545970 [kcal/mol]    -305.70588338 [kJ/mol]
      Elst10,r                   -119.73828937 [mEh]     -75.13691096 [kcal/mol]    -314.37283544 [kJ/mol]
      Elst12,r                      3.30106770 [mEh]       2.07145126 [kcal/mol]       8.66695205 [kJ/mol]

    Exchange                       56.11554169 [mEh]      35.21303404 [kcal/mol]     147.33133441 [kJ/mol]
      Exch10                       50.26778097 [mEh]      31.54350878 [kcal/mol]     131.97804075 [kJ/mol]
      Exch10(S^2)                  50.07731407 [mEh]      31.42398900 [kcal/mol]     131.47796999 [kJ/mol]
      Exch11(S^2)                  -0.50709654 [mEh]      -0.31820789 [kcal/mol]      -1.33138179 [kJ/mol]
      Exch12(S^2)                   6.35485727 [mEh]       3.98773314 [kcal/mol]      16.68467545 [kJ/mol]

    Induction                     -32.31677753 [mEh]     -20.27908406 [kcal/mol]     -84.84768773 [kJ/mol]
      Ind20,r                     -64.49751920 [mEh]     -40.47280433 [kcal/mol]    -169.33821334 [kJ/mol]
      Ind22                       -12.77402207 [mEh]      -8.01581987 [kcal/mol]     -33.53819033 [kJ/mol]
      Exch-Ind20,r                 38.83795688 [mEh]      24.37118589 [kcal/mol]     101.96904175 [kJ/mol]
      Exch-Ind22                    7.69203102 [mEh]       4.82682234 [kcal/mol]      20.19542466 [kJ/mol]
      delta HF,r (2)               -1.57522416 [mEh]      -0.98846809 [kcal/mol]      -4.13575047 [kJ/mol]

    Dispersion                    -12.48406116 [mEh]      -7.83386665 [kcal/mol]     -32.77689806 [kJ/mol]
      Disp20                      -14.77084725 [mEh]      -9.26884659 [kcal/mol]     -38.78085413 [kJ/mol]
      Disp21                        2.05367518 [mEh]       1.28870063 [kcal/mol]       5.39192345 [kJ/mol]
      Disp22 (SDQ)                 -0.19925783 [mEh]      -0.12503618 [kcal/mol]      -0.52315137 [kJ/mol]
      Disp22 (T)                   -1.58847304 [mEh]      -0.99678188 [kcal/mol]      -4.17053538 [kJ/mol]
      Est. Disp22 (T)              -1.70944888 [mEh]      -1.07269536 [kcal/mol]      -4.48815740 [kJ/mol]
      Exch-Disp20                   2.14181762 [mEh]       1.34401085 [kcal/mol]       5.62334139 [kJ/mol]

  Total HF                        -96.70529489 [mEh]     -60.68348871 [kcal/mol]    -253.89971675 [kJ/mol]
  Total SAPT0                    -109.33432452 [mEh]     -68.60832444 [kcal/mol]    -287.05722948 [kJ/mol]
  Total SAPT2                    -105.26748715 [mEh]     -66.05634547 [kcal/mol]    -276.37974943 [kJ/mol]
  Total SAPT2+                   -105.12251867 [mEh]     -65.96537637 [kcal/mol]    -275.99913475 [kJ/mol]

  Special recipe for scaled SAPT0 (see Manual):
    Electrostatics sSAPT0        -119.73828937 [mEh]     -75.13691096 [kcal/mol]    -314.37283544 [kJ/mol]
    Exchange sSAPT0                50.26778097 [mEh]      31.54350878 [kcal/mol]     131.97804075 [kJ/mol]
    Induction sSAPT0              -26.78994336 [mEh]     -16.81094326 [kcal/mol]     -70.33698661 [kJ/mol]
    Dispersion sSAPT0             -12.60449763 [mEh]      -7.90944168 [kcal/mol]     -33.09310397 [kJ/mol]
  Total sSAPT0                   -108.86494940 [mEh]     -68.31378711 [kcal/mol]    -285.82488526 [kJ/mol]
  --------------------------------------------------------------------------------------------------------

*** Psi4 exiting successfully. Buy a developer a beer!
