                               Psi4 1.9 release

  ==> Input File <==

--------------------------------------------------------------------------
MEMORY 60 GB

molecule dimer {
1 1
K      0.000000     0.000000     0.000000
--
0 1
O      1.380814     0.870128    -2.552071
H      0.720240     1.596362    -2.443970
H      1.177395     0.252244    -3.293213
O      1.273503     1.903801     1.295069
H      1.989230     1.514260     1.865592
H      0.801927     2.486720     1.867390
O     -2.462575     1.133906     0.643205
H     -2.766838     0.224028     0.624927
H     -2.781846     1.533607    -0.169164
O     -2.169681    -1.506407    -1.529652
H     -2.399596    -2.128795    -2.205315
H     -2.797931    -0.796605    -1.523323
O      1.163535    -1.097883     2.056202
H      2.105116    -0.983745     2.128536
H      0.817248    -1.314531     2.991563

units ang
no_reorient
no_com
symmetry c1
}

set {
basis        aug-cc-pVTZ
scf_type     df
}

energy("sapt2+")
--------------------------------------------------------------------------

  //              Dimer HF             //
    Molecular point group: c1
  Charge       = 1
  Multiplicity = 1
  Basis Set: AUG-CC-PVTZ
    Blend: AUG-CC-PVTZ
  Basis Set: (AUG-CC-PVTZ AUX)
    Blend: AUG-CC-PVTZ-JKFIT + DEF2-UNIVERSAL-JKFIT
  @DF-RHF Final Energy:  -979.37728590550182
    Total Energy =                       -979.3772859055018216
 Dipole X            :         17.2239343          -18.2363995           -1.0124652
 Dipole Y            :        -24.3121857           24.2109916           -0.1011941
 Dipole Z            :          1.7441610           -1.6156270            0.1285340
 Magnitude           :                                                    1.0255959
  //            Monomer A HF           //
    Molecular point group: c1
  Multiplicity = 1
  Basis Set: AUG-CC-PVTZ
    Blend: AUG-CC-PVTZ
  Basis Set: (AUG-CC-PVTZ AUX)
    Blend: AUG-CC-PVTZ-JKFIT + DEF2-UNIVERSAL-JKFIT
  @DF-RHF Final Energy:  -599.01751587029901
    Total Energy =                       -599.0175158702990075
  //            Monomer B HF           //
    Molecular point group: c1

    Geometry (in Angstrom), charge = 0, multiplicity = 1:

       Center              X                  Y                   Z               Mass
    ------------   -----------------  -----------------  -----------------  -----------------
      Gh(K)           0.000000000000     0.000000000000     0.000000000000    38.963706486400
         O            1.380814000000     0.870128000000    -2.552071000000    15.994914619570
         H            0.720240000000     1.596362000000    -2.443970000000     1.007825032230
         H            1.177395000000     0.252244000000    -3.293213000000     1.007825032230
         O            1.273503000000     1.903801000000     1.295069000000    15.994914619570
         H            1.989230000000     1.514260000000     1.865592000000     1.007825032230
         H            0.801927000000     2.486720000000     1.867390000000     1.007825032230
         O           -2.462575000000     1.133906000000     0.643205000000    15.994914619570
         H           -2.766838000000     0.224028000000     0.624927000000     1.007825032230
         H           -2.781846000000     1.533607000000    -0.169164000000     1.007825032230
         O           -2.169681000000    -1.506407000000    -1.529652000000    15.994914619570
         H           -2.399596000000    -2.128795000000    -2.205315000000     1.007825032230
         H           -2.797931000000    -0.796605000000    -1.523323000000     1.007825032230
         O            1.163535000000    -1.097883000000     2.056202000000    15.994914619570
         H            2.105116000000    -0.983745000000     2.128536000000     1.007825032230
         H            0.817248000000    -1.314531000000     2.991563000000     1.007825032230

  Charge       = 0
  Multiplicity = 1
  Basis Set: AUG-CC-PVTZ
    Blend: AUG-CC-PVTZ
  Basis Set: (AUG-CC-PVTZ AUX)
    Blend: AUG-CC-PVTZ-JKFIT + DEF2-UNIVERSAL-JKFIT

    Orbital Energies [Eh]
    ---------------------

    Doubly Occupied:

       1A    -20.565671     2A    -20.557255     3A    -20.555009
       4A    -20.543589     5A    -20.538992     6A     -1.357835
       7A     -1.341757     8A     -1.324044     9A     -1.317901
      10A     -1.308374    11A     -0.736828    12A     -0.709054
      13A     -0.693600    14A     -0.693552    15A     -0.681556
      16A     -0.577848    17A     -0.571913    18A     -0.557755
      19A     -0.551147    20A     -0.536817    21A     -0.511908
      22A     -0.499846    23A     -0.497055    24A     -0.480284
      25A     -0.472698

  @DF-RHF Final Energy:  -380.27778464635065

   => Energetics <=

    Nuclear Repulsion Energy =            167.5129595473015627
    One-Electron Energy =                -859.2169040194864920
    Two-Electron Energy =                 311.4261598258343042
    Total Energy =                       -380.2777846463506535
 Dipole X            :         17.2173411          -18.2363995           -1.0190584
 Dipole Y            :        -24.4352430           24.2109916           -0.2242514
 Dipole Z            :          1.5946838           -1.6156270           -0.0209432
 Magnitude           :                                                    1.0436509

    SAPT Results
  --------------------------------------------------------------------------------------------------------
    Electrostatics                -92.41302782 [mEh]     -57.99005046 [kcal/mol]    -242.63037112 [kJ/mol]
      Elst10,r                    -95.37285256 [mEh]     -59.84736852 [kcal/mol]    -250.40138989 [kJ/mol]
      Elst12,r                      2.95982474 [mEh]       1.85731806 [kcal/mol]       7.77101878 [kJ/mol]

    Exchange                       40.05082671 [mEh]      25.13227319 [kcal/mol]     105.15343104 [kJ/mol]
      Exch10                       35.77031390 [mEh]      22.44621085 [kcal/mol]      93.91494620 [kJ/mol]
      Exch10(S^2)                  35.65295182 [mEh]      22.37256503 [kcal/mol]      93.60681210 [kJ/mol]
      Exch11(S^2)                  -0.22166810 [mEh]      -0.13909883 [kcal/mol]      -0.58198951 [kJ/mol]
      Exch12(S^2)                   4.50218091 [mEh]       2.82516117 [kcal/mol]      11.82047435 [kJ/mol]

    Induction                     -26.32134254 [mEh]     -16.51689180 [kcal/mol]     -69.10667531 [kJ/mol]
      Ind20,r                     -48.90239001 [mEh]     -30.68671302 [kcal/mol]    -128.39320728 [kJ/mol]
      Ind22                        -9.04057324 [mEh]      -5.67304536 [kcal/mol]     -23.73602177 [kJ/mol]
      Exch-Ind20,r                 27.59824441 [mEh]      17.31815983 [kcal/mol]      72.45918072 [kJ/mol]
      Exch-Ind22                    5.10208090 [mEh]       3.20160410 [kcal/mol]      13.39551155 [kJ/mol]
      delta HF,r (2)               -1.07870460 [mEh]      -0.67689735 [kcal/mol]      -2.83213853 [kJ/mol]

    Dispersion                     -9.44238031 [mEh]      -5.92518310 [kcal/mol]     -24.79096608 [kJ/mol]
      Disp20                      -10.98491312 [mEh]      -6.89313705 [kcal/mol]     -28.84088542 [kJ/mol]
      Disp21                        1.46884382 [mEh]       0.92171341 [kcal/mol]       3.85644892 [kJ/mol]
      Disp22 (SDQ)                 -0.13321346 [mEh]      -0.08359271 [kcal/mol]      -0.34975188 [kJ/mol]
      Disp22 (T)                   -1.15895922 [mEh]      -0.72725789 [kcal/mol]      -3.04284702 [kJ/mol]
      Est. Disp22 (T)              -1.25130650 [mEh]      -0.78520668 [kcal/mol]      -3.28530476 [kJ/mol]
      Exch-Disp20                   1.45820894 [mEh]       0.91503993 [kcal/mol]       3.82852706 [kJ/mol]

  Total HF                        -81.98538885 [mEh]     -51.44660822 [kcal/mol]    -215.25260878 [kJ/mol]
  Total SAPT0                     -91.51209303 [mEh]     -57.42470534 [kcal/mol]    -240.26496714 [kJ/mol]
  Total SAPT2                     -88.21024782 [mEh]     -55.35276619 [kcal/mol]    -231.59597375 [kJ/mol]
  Total SAPT2+                    -88.12592396 [mEh]     -55.29985217 [kcal/mol]    -231.37458147 [kJ/mol]

  Special recipe for scaled SAPT0 (see Manual):
    Electrostatics sSAPT0         -95.37285256 [mEh]     -59.84736852 [kcal/mol]    -250.40138989 [kJ/mol]
    Exchange sSAPT0                35.77031390 [mEh]      22.44621085 [kcal/mol]      93.91494620 [kJ/mol]
    Induction sSAPT0              -22.10940905 [mEh]     -13.87386364 [kcal/mol]     -58.04824548 [kJ/mol]
    Dispersion sSAPT0              -9.51225636 [mEh]      -5.96903098 [kcal/mol]     -24.97442563 [kJ/mol]
  Total sSAPT0                    -91.22420407 [mEh]     -57.24405229 [kcal/mol]    -239.50911480 [kJ/mol]
  --------------------------------------------------------------------------------------------------------

*** Psi4 exiting successfully. Buy a developer a beer!
