                               Psi4 1.9 release

  ==> Input File <==

--------------------------------------------------------------------------
MEMORY 60 GB

molecule dimer {
1 1
K      0.000000     0.000000     0.000000
--
0 1
O     -0.502703    -2.334457    -1.283675
H      0.237008    -2.749133    -1.803266
H     -1.286908    -2.624519    -1.722892
O      2.099037     0.906527     1.636457
H      2.896740     1.100518     1.113670
H      1.969279     1.530828     2.370669
O      0.462307     2.678042    -0.359156
H      0.213104     2.711476    -1.330404
H      1.161890     3.384492    -0.307642
O      1.843513    -0.310552    -1.771290
H      2.148881     0.527834    -2.195735
H      2.570572    -0.916573    -1.716041
O     -2.431167     1.182859    -0.447565
H     -2.521700     1.224046    -1.399351
H     -2.195533     2.014004     0.091471

units ang
no_reorient
no_com
symmetry c1
}

set {
basis        aug-cc-pVTZ
scf_type     df
}

energy("sapt2+")
--------------------------------------------------------------------------

  //              Dimer HF             //
    Molecular point group: c1
  Charge       = 1
  Multiplicity = 1
  Basis Set: AUG-CC-PVTZ
    Blend: AUG-CC-PVTZ
  Basis Set: (AUG-CC-PVTZ AUX)
    Blend: AUG-CC-PVTZ-JKFIT + DEF2-UNIVERSAL-JKFIT
  @DF-RHF Final Energy:  -979.37661369369664
    Total Energy =                       -979.3766136936966404
 Dipole X            :        -30.3918170           32.0520776            1.6602605
 Dipole Y            :        -42.3320955           43.8082452            1.4761497
 Dipole Z            :         44.8859016          -46.6787921           -1.7928905
 Magnitude           :                                                    2.8548099
  //            Monomer A HF           //
    Molecular point group: c1
  Multiplicity = 1
  Basis Set: AUG-CC-PVTZ
    Blend: AUG-CC-PVTZ
  Basis Set: (AUG-CC-PVTZ AUX)
    Blend: AUG-CC-PVTZ-JKFIT + DEF2-UNIVERSAL-JKFIT
  @DF-RHF Final Energy:  -599.01751611754230
    Total Energy =                       -599.0175161175421863
  //            Monomer B HF           //
    Molecular point group: c1

    Geometry (in Angstrom), charge = 0, multiplicity = 1:

       Center              X                  Y                   Z               Mass
    ------------   -----------------  -----------------  -----------------  -----------------
      Gh(K)           0.000000000000     0.000000000000     0.000000000000    38.963706486400
         O           -0.502703000000    -2.334457000000    -1.283675000000    15.994914619570
         H            0.237008000000    -2.749133000000    -1.803266000000     1.007825032230
         H           -1.286908000000    -2.624519000000    -1.722892000000     1.007825032230
         O            2.099037000000     0.906527000000     1.636457000000    15.994914619570
         H            2.896740000000     1.100518000000     1.113670000000     1.007825032230
         H            1.969279000000     1.530828000000     2.370669000000     1.007825032230
         O            0.462307000000     2.678042000000    -0.359156000000    15.994914619570
         H            0.213104000000     2.711476000000    -1.330404000000     1.007825032230
         H            1.161890000000     3.384492000000    -0.307642000000     1.007825032230
         O            1.843513000000    -0.310552000000    -1.771290000000    15.994914619570
         H            2.148881000000     0.527834000000    -2.195735000000     1.007825032230
         H            2.570572000000    -0.916573000000    -1.716041000000     1.007825032230
         O           -2.431167000000     1.182859000000    -0.447565000000    15.994914619570
         H           -2.521700000000     1.224046000000    -1.399351000000     1.007825032230
         H           -2.195533000000     2.014004000000     0.091471000000     1.007825032230

  Charge       = 0
  Multiplicity = 1
  Basis Set: AUG-CC-PVTZ
    Blend: AUG-CC-PVTZ
  Basis Set: (AUG-CC-PVTZ AUX)
    Blend: AUG-CC-PVTZ-JKFIT + DEF2-UNIVERSAL-JKFIT

    Orbital Energies [Eh]
    ---------------------

    Doubly Occupied:

       1A    -20.568314     2A    -20.553485     3A    -20.541371
       4A    -20.538941     5A    -20.534430     6A     -1.332295
       7A     -1.327769     8A     -1.317612     9A     -1.315609
      10A     -1.300073    11A     -0.708628    12A     -0.699915
      13A     -0.699524    14A     -0.682674    15A     -0.680562
      16A     -0.574199    17A     -0.559382    18A     -0.549132
      19A     -0.539829    20A     -0.519847    21A     -0.503710
      22A     -0.493185    23A     -0.478072    24A     -0.477307
      25A     -0.472560

  @DF-RHF Final Energy:  -380.26210162050586

   => Energetics <=

    Nuclear Repulsion Energy =            176.0611486356677347
    One-Electron Energy =                -876.7096452183246811
    Two-Electron Energy =                 320.3863949621510301
    Total Energy =                       -380.2621016205058595
 Dipole X            :        -30.6014359           32.0520776            1.4506417
 Dipole Y            :        -42.5428176           43.8082452            1.2654277
 Dipole Z            :         45.1715100          -46.6787921           -1.5072821
 Magnitude           :                                                    2.4449065

    SAPT Results
  --------------------------------------------------------------------------------------------------------
    Electrostatics               -109.83515391 [mEh]     -68.92259963 [kcal/mol]    -288.37215686 [kJ/mol]
      Elst10,r                   -114.63171518 [mEh]     -71.93248727 [kcal/mol]    -300.96552673 [kJ/mol]
      Elst12,r                      4.79656127 [mEh]       3.00988764 [kcal/mol]      12.59336987 [kJ/mol]

    Exchange                       46.19492360 [mEh]      28.98775220 [kcal/mol]     121.28475519 [kJ/mol]
      Exch10                       41.64363707 [mEh]      26.13177678 [kcal/mol]     109.33535406 [kJ/mol]
      Exch10(S^2)                  41.51681449 [mEh]      26.05219441 [kcal/mol]     109.00238143 [kJ/mol]
      Exch11(S^2)                  -0.31696942 [mEh]      -0.19890131 [kcal/mol]      -0.83220309 [kJ/mol]
      Exch12(S^2)                   4.86825594 [mEh]       3.05487672 [kcal/mol]      12.78160421 [kJ/mol]

    Induction                     -28.15621382 [mEh]     -17.66829092 [kcal/mol]     -73.92412921 [kJ/mol]
      Ind20,r                     -52.99005933 [mEh]     -33.25176425 [kcal/mol]    -139.12538161 [kJ/mol]
      Ind22                        -9.65816690 [mEh]      -6.06059123 [kcal/mol]     -25.35751371 [kJ/mol]
      Exch-Ind20,r                 30.22998613 [mEh]      18.96960269 [kcal/mol]      79.36881766 [kJ/mol]
      Exch-Ind22                    5.50983062 [mEh]       3.45747091 [kcal/mol]      14.46605830 [kJ/mol]
      delta HF,r (2)               -1.24780434 [mEh]      -0.78300905 [kcal/mol]      -3.27610985 [kJ/mol]

    Dispersion                    -10.71239559 [mEh]      -6.72212972 [kcal/mol]     -28.12539075 [kJ/mol]
      Disp20                      -12.61388904 [mEh]      -7.91533487 [kcal/mol]     -33.11776110 [kJ/mol]
      Disp21                        1.78244477 [mEh]       1.11850098 [kcal/mol]       4.67980810 [kJ/mol]
      Disp22 (SDQ)                 -0.15577116 [mEh]      -0.09774788 [kcal/mol]      -0.40897712 [kJ/mol]
      Disp22 (T)                   -1.32358938 [mEh]      -0.83056488 [kcal/mol]      -3.47508344 [kJ/mol]
      Est. Disp22 (T)              -1.42831933 [mEh]      -0.89628391 [kcal/mol]      -3.75005189 [kJ/mol]
      Exch-Disp20                   1.70313917 [mEh]       1.06873596 [kcal/mol]       4.47159126 [kJ/mol]

  Total HF                        -96.99595565 [mEh]     -60.86588109 [kcal/mol]    -254.66284647 [kJ/mol]
  Total SAPT0                    -107.90670552 [mEh]     -67.71248000 [kcal/mol]    -283.30901631 [kJ/mol]
  Total SAPT2                    -102.70719401 [mEh]     -64.44973726 [kcal/mol]    -269.65770071 [kJ/mol]
  Total SAPT2+                   -102.50883973 [mEh]     -64.32526808 [kcal/mol]    -269.13692163 [kJ/mol]

  Special recipe for scaled SAPT0 (see Manual):
    Electrostatics sSAPT0        -114.63171518 [mEh]     -71.93248727 [kcal/mol]    -300.96552673 [kJ/mol]
    Exchange sSAPT0                41.64363707 [mEh]      26.13177678 [kcal/mol]     109.33535406 [kJ/mol]
    Induction sSAPT0              -23.72999726 [mEh]     -14.89079809 [kcal/mol]     -62.30309921 [kJ/mol]
    Dispersion sSAPT0             -10.89509426 [mEh]      -6.83677487 [kcal/mol]     -28.60506605 [kJ/mol]
  Total sSAPT0                   -107.61316963 [mEh]     -67.52828344 [kcal/mol]    -282.53833793 [kJ/mol]
  --------------------------------------------------------------------------------------------------------

*** Psi4 exiting successfully. Buy a developer a beer!
