                               Psi4 1.9 release

  ==> Input File <==

--------------------------------------------------------------------------
MEMORY 60 GB

molecule dimer {
1 1
K      0.000000     0.000000     0.000000
--
0 1
O     -1.624696     1.170589    -1.773297
H     -2.481887     0.884131    -1.505250
H     -1.740444     1.131366    -2.691646
O      1.825084     2.002345    -0.856271
H      2.736729     1.760906    -0.931498
H      1.835268     2.896585    -0.440370
O      2.864344    -0.844859     0.005723
H      2.698983    -1.133793    -0.900163
H      3.529909    -0.153569    -0.092673
O      0.154222    -1.854253     2.188230
H      0.676628    -2.434760     1.536156
H      0.442297    -1.788222     3.119830
O     -1.619276     1.879651     1.526773
H     -1.466252     1.473301     2.383724
H     -2.509648     2.026489     1.441369
O     -0.827346    -1.993974    -1.708939
H     -1.116939    -1.685994    -2.556826
H     -1.616419    -2.415908    -1.284760

units ang
no_reorient
no_com
symmetry c1
}

set {
basis        aug-cc-pVTZ
scf_type     df
}

energy("sapt2+")
--------------------------------------------------------------------------

  //              Dimer HF             //
    Molecular point group: c1
  Charge       = 1
  Multiplicity = 1
  Basis Set: AUG-CC-PVTZ
    Blend: AUG-CC-PVTZ
  Basis Set: (AUG-CC-PVTZ AUX)
    Blend: AUG-CC-PVTZ-JKFIT + DEF2-UNIVERSAL-JKFIT
  @DF-RHF Final Energy: -1055.44889161062724
    Total Energy =                      -1055.4488916106272427
 Dipole X            :        -13.9067877           13.5434423           -0.3633454
 Dipole Y            :         -6.5140338            6.4940892           -0.0199446
 Dipole Z            :         12.4653149          -12.9717510           -0.5064361
 Magnitude           :                                                    0.6236147
  //            Monomer A HF           //
    Molecular point group: c1
  Multiplicity = 1
  Basis Set: AUG-CC-PVTZ
    Blend: AUG-CC-PVTZ
  Basis Set: (AUG-CC-PVTZ AUX)
    Blend: AUG-CC-PVTZ-JKFIT + DEF2-UNIVERSAL-JKFIT
  @DF-RHF Final Energy:  -599.01751672435955
    Total Energy =                       -599.0175167243596661
  //            Monomer B HF           //
    Molecular point group: c1

    Geometry (in Angstrom), charge = 0, multiplicity = 1:

       Center              X                  Y                   Z               Mass
    ------------   -----------------  -----------------  -----------------  -----------------
      Gh(K)           0.000000000000     0.000000000000     0.000000000000    38.963706486400
         O           -1.624696000000     1.170589000000    -1.773297000000    15.994914619570
         H           -2.481887000000     0.884131000000    -1.505250000000     1.007825032230
         H           -1.740444000000     1.131366000000    -2.691646000000     1.007825032230
         O            1.825084000000     2.002345000000    -0.856271000000    15.994914619570
         H            2.736729000000     1.760906000000    -0.931498000000     1.007825032230
         H            1.835268000000     2.896585000000    -0.440370000000     1.007825032230
         O            2.864344000000    -0.844859000000     0.005723000000    15.994914619570
         H            2.698983000000    -1.133793000000    -0.900163000000     1.007825032230
         H            3.529909000000    -0.153569000000    -0.092673000000     1.007825032230
         O            0.154222000000    -1.854253000000     2.188230000000    15.994914619570
         H            0.676628000000    -2.434760000000     1.536156000000     1.007825032230
         H            0.442297000000    -1.788222000000     3.119830000000     1.007825032230
         O           -1.619276000000     1.879651000000     1.526773000000    15.994914619570
         H           -1.466252000000     1.473301000000     2.383724000000     1.007825032230
         H           -2.509648000000     2.026489000000     1.441369000000     1.007825032230
         O           -0.827346000000    -1.993974000000    -1.708939000000    15.994914619570
         H           -1.116939000000    -1.685994000000    -2.556826000000     1.007825032230
         H           -1.616419000000    -2.415908000000    -1.284760000000     1.007825032230

  Charge       = 0
  Multiplicity = 1
  Basis Set: AUG-CC-PVTZ
    Blend: AUG-CC-PVTZ
  Basis Set: (AUG-CC-PVTZ AUX)
    Blend: AUG-CC-PVTZ-JKFIT + DEF2-UNIVERSAL-JKFIT

    Orbital Energies [Eh]
    ---------------------

    Doubly Occupied:

       1A    -20.551212     2A    -20.549602     3A    -20.543101
       4A    -20.539300     5A    -20.537817     6A    -20.534338
       7A     -1.344552     8A     -1.337582     9A     -1.332206
      10A     -1.330041    11A     -1.323434    12A     -1.296638
      13A     -0.711518    14A     -0.698553    15A     -0.696673
      16A     -0.692848    17A     -0.692363    18A     -0.686479
      19A     -0.572665    20A     -0.566709    21A     -0.562242
      22A     -0.554000    23A     -0.553181    24A     -0.520989
      25A     -0.499653    26A     -0.495472    27A     -0.484029
      28A     -0.479086    29A     -0.478169    30A     -0.473575

  @DF-RHF Final Energy:  -456.32881938540498

   => Energetics <=

    Nuclear Repulsion Energy =            240.1754984433132734
    One-Electron Energy =               -1109.7325731658572749
    Two-Electron Energy =                 413.2282553371390463
    Total Energy =                       -456.3288193854049837
 Dipole X            :        -13.9153913           13.5434423           -0.3719490
 Dipole Y            :         -6.5768689            6.4940892           -0.0827798
 Dipole Z            :         12.5509379          -12.9717510           -0.4208131
 Magnitude           :                                                    0.5676991

    SAPT Results
  --------------------------------------------------------------------------------------------------------
    Electrostatics               -106.45316150 [mEh]     -66.80036736 [kcal/mol]    -279.49273702 [kJ/mol]
      Elst10,r                   -110.93277814 [mEh]     -69.61136924 [kcal/mol]    -291.25396889 [kJ/mol]
      Elst12,r                      4.47961664 [mEh]       2.81100188 [kcal/mol]      11.76123188 [kJ/mol]

    Exchange                       36.60430097 [mEh]      22.96954564 [kcal/mol]      96.10457897 [kJ/mol]
      Exch10                       32.48963211 [mEh]      20.38755195 [kcal/mol]      85.30151735 [kJ/mol]
      Exch10(S^2)                  32.43874914 [mEh]      20.35562240 [kcal/mol]      85.16792412 [kJ/mol]
      Exch11(S^2)                  -0.28039864 [mEh]      -0.17595281 [kcal/mol]      -0.73618654 [kJ/mol]
      Exch12(S^2)                   4.39506751 [mEh]       2.75794650 [kcal/mol]      11.53924816 [kJ/mol]

    Induction                     -28.40700714 [mEh]     -17.82566610 [kcal/mol]     -74.58258697 [kJ/mol]
      Ind20,r                     -46.85636980 [mEh]     -29.40281596 [kcal/mol]    -123.02138197 [kJ/mol]
      Ind22                        -8.71735213 [mEh]      -5.47022105 [kcal/mol]     -22.88740487 [kJ/mol]
      Exch-Ind20,r                 23.77231700 [mEh]      14.91735413 [kcal/mol]      62.41420967 [kJ/mol]
      Exch-Ind22                    4.42269982 [mEh]       2.77528604 [kcal/mol]      11.61179678 [kJ/mol]
      delta HF,r (2)               -1.02830202 [mEh]      -0.64526926 [kcal/mol]      -2.69980658 [kJ/mol]

    Dispersion                    -10.15388561 [mEh]      -6.37165942 [kcal/mol]     -26.65902299 [kJ/mol]
      Disp20                      -11.64649049 [mEh]      -7.30828312 [kcal/mol]     -30.57785658 [kJ/mol]
      Disp21                        1.59822887 [mEh]       1.00290376 [kcal/mol]       4.19614932 [kJ/mol]
      Disp22 (SDQ)                 -0.14360098 [mEh]      -0.09011098 [kcal/mol]      -0.37702433 [kJ/mol]
      Disp22 (T)                   -1.24826111 [mEh]      -0.78329567 [kcal/mol]      -3.27730908 [kJ/mol]
      Est. Disp22 (T)              -1.34068434 [mEh]      -0.84129213 [kcal/mol]      -3.51996626 [kJ/mol]
      Exch-Disp20                   1.37866134 [mEh]       0.86512305 [kcal/mol]       3.61967485 [kJ/mol]

  Total HF                       -102.55550086 [mEh]     -64.35454838 [kcal/mol]    -269.25943042 [kJ/mol]
  Total SAPT0                    -112.82333002 [mEh]     -70.79770845 [kcal/mol]    -296.21761215 [kJ/mol]
  Total SAPT2                    -108.52369682 [mEh]     -68.09964788 [kcal/mol]    -284.92892675 [kJ/mol]
  Total SAPT2+                   -108.40975327 [mEh]     -68.02814723 [kcal/mol]    -284.62976801 [kJ/mol]

  Special recipe for scaled SAPT0 (see Manual):
    Electrostatics sSAPT0        -110.93277814 [mEh]     -69.61136924 [kcal/mol]    -291.25396889 [kJ/mol]
    Exchange sSAPT0                32.48963211 [mEh]      20.38755195 [kcal/mol]      85.30151735 [kJ/mol]
    Induction sSAPT0              -24.00031248 [mEh]     -15.06042346 [kcal/mol]     -63.01281174 [kJ/mol]
    Dispersion sSAPT0             -10.26133132 [mEh]      -6.43908262 [kcal/mol]     -26.94112168 [kJ/mol]
  Total sSAPT0                   -112.70478984 [mEh]     -70.72332337 [kcal/mol]    -295.90638496 [kJ/mol]
  --------------------------------------------------------------------------------------------------------

*** Psi4 exiting successfully. Buy a developer a beer!
