                               Psi4 1.9 release

  ==> Input File <==

--------------------------------------------------------------------------
MEMORY 60 GB

molecule dimer {
1 1
K      0.000000     0.000000     0.000000
--
0 1
O     -2.854442     0.584840    -0.122179
H     -3.265333    -0.153361     0.306368
H     -3.159443     1.375887     0.435029
O      1.793507     2.390251     0.448386
H      1.484797     2.937877    -0.247414
H      2.760113     2.530882     0.485450
O     -0.012318     1.515708    -2.116487
H     -0.444712     1.661309    -2.931489
H      0.234305     2.352957    -1.751290
O     -0.359420    -0.604796     2.633990
H      0.279877    -0.081645     3.137778
H     -0.226378    -1.549243     2.698047
O      2.595565    -1.054409     0.246960
H      2.113393    -1.851888    -0.056301
H      3.361367    -1.381693     0.744870
O      0.402821    -2.381732    -1.341749
H     -0.585953    -2.453448    -1.264600
H      0.751084    -2.951825    -2.024247

units ang
no_reorient
no_com
symmetry c1
}

set {
basis        aug-cc-pVTZ
scf_type     df
}

energy("sapt2+")
--------------------------------------------------------------------------

  //              Dimer HF             //
    Molecular point group: c1
  Charge       = 1
  Multiplicity = 1
  Basis Set: AUG-CC-PVTZ
    Blend: AUG-CC-PVTZ
  Basis Set: (AUG-CC-PVTZ AUX)
    Blend: AUG-CC-PVTZ-JKFIT + DEF2-UNIVERSAL-JKFIT
  @DF-RHF Final Energy: -1055.45513497920888
    Total Energy =                      -1055.4551349792088786
 Dipole X            :        -29.7027376           29.9121366            0.2093990
 Dipole Y            :         -7.9650309            7.6244874           -0.3405435
 Dipole Z            :          4.5664897           -4.6797764           -0.1132867
 Magnitude           :                                                    0.4155137
  //            Monomer A HF           //
    Molecular point group: c1
  Multiplicity = 1
  Basis Set: AUG-CC-PVTZ
    Blend: AUG-CC-PVTZ
  Basis Set: (AUG-CC-PVTZ AUX)
    Blend: AUG-CC-PVTZ-JKFIT + DEF2-UNIVERSAL-JKFIT
  @DF-RHF Final Energy:  -599.01751694276982
    Total Energy =                       -599.0175169427698165
  //            Monomer B HF           //
    Molecular point group: c1

    Geometry (in Angstrom), charge = 0, multiplicity = 1:

       Center              X                  Y                   Z               Mass
    ------------   -----------------  -----------------  -----------------  -----------------
      Gh(K)           0.000000000000     0.000000000000     0.000000000000    38.963706486400
         O           -2.854442000000     0.584840000000    -0.122179000000    15.994914619570
         H           -3.265333000000    -0.153361000000     0.306368000000     1.007825032230
         H           -3.159443000000     1.375887000000     0.435029000000     1.007825032230
         O            1.793507000000     2.390251000000     0.448386000000    15.994914619570
         H            1.484797000000     2.937877000000    -0.247414000000     1.007825032230
         H            2.760113000000     2.530882000000     0.485450000000     1.007825032230
         O           -0.012318000000     1.515708000000    -2.116487000000    15.994914619570
         H           -0.444712000000     1.661309000000    -2.931489000000     1.007825032230
         H            0.234305000000     2.352957000000    -1.751290000000     1.007825032230
         O           -0.359420000000    -0.604796000000     2.633990000000    15.994914619570
         H            0.279877000000    -0.081645000000     3.137778000000     1.007825032230
         H           -0.226378000000    -1.549243000000     2.698047000000     1.007825032230
         O            2.595565000000    -1.054409000000     0.246960000000    15.994914619570
         H            2.113393000000    -1.851888000000    -0.056301000000     1.007825032230
         H            3.361367000000    -1.381693000000     0.744870000000     1.007825032230
         O            0.402821000000    -2.381732000000    -1.341749000000    15.994914619570
         H           -0.585953000000    -2.453448000000    -1.264600000000     1.007825032230
         H            0.751084000000    -2.951825000000    -2.024247000000     1.007825032230

  Charge       = 0
  Multiplicity = 1
  Basis Set: AUG-CC-PVTZ
    Blend: AUG-CC-PVTZ
  Basis Set: (AUG-CC-PVTZ AUX)
    Blend: AUG-CC-PVTZ-JKFIT + DEF2-UNIVERSAL-JKFIT

    Orbital Energies [Eh]
    ---------------------

    Doubly Occupied:

       1A    -20.558771     2A    -20.546354     3A    -20.544308
       4A    -20.536148     5A    -20.534647     6A    -20.526574
       7A     -1.333636     8A     -1.333343     9A     -1.329539
      10A     -1.318443    11A     -1.317498    12A     -1.301252
      13A     -0.714569    14A     -0.714372    15A     -0.705579
      16A     -0.692858    17A     -0.678440    18A     -0.670877
      19A     -0.560739    20A     -0.559415    21A     -0.557098
      22A     -0.548718    23A     -0.538682    24A     -0.535010
      25A     -0.499144    26A     -0.486885    27A     -0.483528
      28A     -0.480351    29A     -0.480098    30A     -0.465014

  @DF-RHF Final Energy:  -456.33778855258794

   => Energetics <=

    Nuclear Repulsion Energy =            241.7875497560422673
    One-Electron Energy =               -1113.1468845302856607
    Two-Electron Energy =                 415.0215462216554556
    Total Energy =                       -456.3377885525879378
 Dipole X            :        -29.8741707           29.9121366            0.0379658
 Dipole Y            :         -8.0023334            7.6244874           -0.3778459
 Dipole Z            :          4.6007089           -4.6797764           -0.0790675
 Magnitude           :                                                    0.3878925

    SAPT Results
  --------------------------------------------------------------------------------------------------------
    Electrostatics               -106.23562886 [mEh]     -66.66386356 [kcal/mol]    -278.92160513 [kJ/mol]
      Elst10,r                   -111.21795676 [mEh]     -69.79032152 [kcal/mol]    -292.00270524 [kJ/mol]
      Elst12,r                      4.98232790 [mEh]       3.12645796 [kcal/mol]      13.08110010 [kJ/mol]

    Exchange                       41.04964557 [mEh]      25.75904149 [kcal/mol]     107.77582959 [kJ/mol]
      Exch10                       36.78335889 [mEh]      23.08190618 [kcal/mol]      96.57469546 [kJ/mol]
      Exch10(S^2)                  36.71198089 [mEh]      23.03711581 [kcal/mol]      96.38729254 [kJ/mol]
      Exch11(S^2)                  -0.33574824 [mEh]      -0.21068520 [kcal/mol]      -0.88150689 [kJ/mol]
      Exch12(S^2)                   4.60203492 [mEh]       2.88782051 [kcal/mol]      12.08264101 [kJ/mol]

    Induction                     -29.76306680 [mEh]     -18.67660638 [kcal/mol]     -78.14292111 [kJ/mol]
      Ind20,r                     -50.67002770 [mEh]     -31.79592242 [kcal/mol]    -133.03413939 [kJ/mol]
      Ind22                        -9.15652634 [mEh]      -5.74580702 [kcal/mol]     -24.04045659 [kJ/mol]
      Exch-Ind20,r                 26.49755938 [mEh]      16.62746955 [kcal/mol]      69.56933258 [kJ/mol]
      Exch-Ind22                    4.78834553 [mEh]       3.00473218 [kcal/mol]      12.57179945 [kJ/mol]
      delta HF,r (2)               -1.22241767 [mEh]      -0.76707867 [kcal/mol]      -3.20945716 [kJ/mol]

    Dispersion                    -10.97945776 [mEh]      -6.88971376 [kcal/mol]     -28.82656237 [kJ/mol]
      Disp20                      -12.74702886 [mEh]      -7.99888137 [kcal/mol]     -33.46731965 [kJ/mol]
      Disp21                        1.79165753 [mEh]       1.12428208 [kcal/mol]       4.70399620 [kJ/mol]
      Disp22 (SDQ)                 -0.13940987 [mEh]      -0.08748102 [kcal/mol]      -0.36602057 [kJ/mol]
      Disp22 (T)                   -1.35195149 [mEh]      -0.84836237 [kcal/mol]      -3.54954814 [kJ/mol]
      Est. Disp22 (T)              -1.45456261 [mEh]      -0.91275182 [kcal/mol]      -3.81895360 [kJ/mol]
      Exch-Disp20                   1.56988605 [mEh]       0.98511837 [kcal/mol]       4.12173525 [kJ/mol]

  Total HF                        -99.82948385 [mEh]     -62.64394688 [kcal/mol]    -262.10227374 [kJ/mol]
  Total SAPT0                    -111.00662666 [mEh]     -69.65770988 [kcal/mol]    -291.44785814 [kJ/mol]
  Total SAPT2                    -106.12619289 [mEh]     -66.59519146 [kcal/mol]    -278.63428106 [kJ/mol]
  Total SAPT2+                   -105.92850784 [mEh]     -66.47114221 [kcal/mol]    -278.11525902 [kJ/mol]

  Special recipe for scaled SAPT0 (see Manual):
    Electrostatics sSAPT0        -111.21795676 [mEh]     -69.79032152 [kcal/mol]    -292.00270524 [kJ/mol]
    Exchange sSAPT0                36.78335889 [mEh]      23.08190618 [kcal/mol]      96.57469546 [kJ/mol]
    Induction sSAPT0              -25.24003006 [mEh]     -15.83835798 [kcal/mol]     -66.26768980 [kJ/mol]
    Dispersion sSAPT0             -11.16796815 [mEh]      -7.00800582 [kcal/mol]     -29.32149633 [kJ/mol]
  Total sSAPT0                   -110.84259608 [mEh]     -69.55477914 [kcal/mol]    -291.01719590 [kJ/mol]
  --------------------------------------------------------------------------------------------------------

*** Psi4 exiting successfully. Buy a developer a beer!
