                               Psi4 1.9 release

  ==> Input File <==

--------------------------------------------------------------------------
MEMORY 60 GB

molecule dimer {
1 1
K      0.000000     0.000000     0.000000
--
0 1
O      2.308722    -0.254536     1.310408
H      2.584958    -1.137932     1.023431
H      3.054955     0.265354     1.083425
O      1.477763     2.323870     0.122954
H      2.452408     2.371039     0.056186
H      1.158784     2.999385    -0.587734
O     -1.887495     0.324605     2.201958
H     -2.756344     0.421092     1.806993
H     -1.987178     0.245204     3.192100
O     -1.051549    -2.482539     0.576865
H     -1.834601    -2.706293     0.062762
H     -0.429524    -3.204685     0.325775
O     -2.479303     0.827493    -1.047506
H     -2.128857     1.517229    -1.644836
H     -3.035895     1.330859    -0.414268
O      0.867083    -1.961681    -1.538513
H      1.235278    -2.602121    -0.912217
H      1.575310    -2.005697    -2.206580

units ang
no_reorient
no_com
symmetry c1
}

set {
basis        aug-cc-pVTZ
scf_type     df
}

energy("sapt2+")
--------------------------------------------------------------------------

  //              Dimer HF             //
    Molecular point group: c1
  Charge       = 1
  Multiplicity = 1
  Basis Set: AUG-CC-PVTZ
    Blend: AUG-CC-PVTZ
  Basis Set: (AUG-CC-PVTZ AUX)
    Blend: AUG-CC-PVTZ-JKFIT + DEF2-UNIVERSAL-JKFIT
  @DF-RHF Final Energy: -1055.44094527285074
    Total Energy =                      -1055.4409452728507404
 Dipole X            :         12.6348236          -11.7709869            0.8638367
 Dipole Y            :         23.1350451          -23.2225987           -0.0875536
 Dipole Z            :        -28.8072306           27.9572981           -0.8499326
 Magnitude           :                                                    1.2150164
  //            Monomer A HF           //
    Molecular point group: c1
  Multiplicity = 1
  Basis Set: AUG-CC-PVTZ
    Blend: AUG-CC-PVTZ
  Basis Set: (AUG-CC-PVTZ AUX)
    Blend: AUG-CC-PVTZ-JKFIT + DEF2-UNIVERSAL-JKFIT
  @DF-RHF Final Energy:  -599.01751687594253
    Total Energy =                       -599.0175168759426469
  //            Monomer B HF           //
    Molecular point group: c1

    Geometry (in Angstrom), charge = 0, multiplicity = 1:

       Center              X                  Y                   Z               Mass
    ------------   -----------------  -----------------  -----------------  -----------------
      Gh(K)           0.000000000000     0.000000000000     0.000000000000    38.963706486400
         O            2.308722000000    -0.254536000000     1.310408000000    15.994914619570
         H            2.584958000000    -1.137932000000     1.023431000000     1.007825032230
         H            3.054955000000     0.265354000000     1.083425000000     1.007825032230
         O            1.477763000000     2.323870000000     0.122954000000    15.994914619570
         H            2.452408000000     2.371039000000     0.056186000000     1.007825032230
         H            1.158784000000     2.999385000000    -0.587734000000     1.007825032230
         O           -1.887495000000     0.324605000000     2.201958000000    15.994914619570
         H           -2.756344000000     0.421092000000     1.806993000000     1.007825032230
         H           -1.987178000000     0.245204000000     3.192100000000     1.007825032230
         O           -1.051549000000    -2.482539000000     0.576865000000    15.994914619570
         H           -1.834601000000    -2.706293000000     0.062762000000     1.007825032230
         H           -0.429524000000    -3.204685000000     0.325775000000     1.007825032230
         O           -2.479303000000     0.827493000000    -1.047506000000    15.994914619570
         H           -2.128857000000     1.517229000000    -1.644836000000     1.007825032230
         H           -3.035895000000     1.330859000000    -0.414268000000     1.007825032230
         O            0.867083000000    -1.961681000000    -1.538513000000    15.994914619570
         H            1.235278000000    -2.602121000000    -0.912217000000     1.007825032230
         H            1.575310000000    -2.005697000000    -2.206580000000     1.007825032230

  Charge       = 0
  Multiplicity = 1
  Basis Set: AUG-CC-PVTZ
    Blend: AUG-CC-PVTZ
  Basis Set: (AUG-CC-PVTZ AUX)
    Blend: AUG-CC-PVTZ-JKFIT + DEF2-UNIVERSAL-JKFIT

    Orbital Energies [Eh]
    ---------------------

    Doubly Occupied:

       1A    -20.559311     2A    -20.555399     3A    -20.549961
       4A    -20.539264     5A    -20.533530     6A    -20.532426
       7A     -1.338496     8A     -1.330002     9A     -1.321548
      10A     -1.311263    11A     -1.309565    12A     -1.303301
      13A     -0.692063    14A     -0.688253    15A     -0.687363
      16A     -0.674407    17A     -0.668318    18A     -0.663075
      19A     -0.579820    20A     -0.563290    21A     -0.560059
      22A     -0.550684    23A     -0.548517    24A     -0.531431
      25A     -0.498409    26A     -0.488983    27A     -0.486285
      28A     -0.476513    29A     -0.470458    30A     -0.468748

  @DF-RHF Final Energy:  -456.31326820578863

   => Energetics <=

    Nuclear Repulsion Energy =            246.2450666483782129
    One-Electron Energy =               -1122.1551749729942458
    Two-Electron Energy =                 419.5968401188273447
    Total Energy =                       -456.3132682057886313
 Dipole X            :         12.6080807          -11.7709869            0.8370938
 Dipole Y            :         23.2614484          -23.2225987            0.0388497
 Dipole Z            :        -28.9145223           27.9572981           -0.9572242
 Magnitude           :                                                    1.2722081

    SAPT Results
  --------------------------------------------------------------------------------------------------------
    Electrostatics               -120.65433987 [mEh]     -75.71174132 [kcal/mol]    -316.77792568 [kJ/mol]
      Elst10,r                   -126.13157549 [mEh]     -79.14875856 [kcal/mol]    -331.15840583 [kJ/mol]
      Elst12,r                      5.47723562 [mEh]       3.43701724 [kcal/mol]      14.38048014 [kJ/mol]

    Exchange                       47.25749292 [mEh]      29.65452452 [kcal/mol]     124.07453057 [kJ/mol]
      Exch10                       42.46516914 [mEh]      26.64729594 [kcal/mol]     111.49228622 [kJ/mol]
      Exch10(S^2)                  42.36539919 [mEh]      26.58468935 [kcal/mol]     111.23034026 [kJ/mol]
      Exch11(S^2)                  -0.39682099 [mEh]      -0.24900893 [kcal/mol]      -1.04185337 [kJ/mol]
      Exch12(S^2)                   5.18914477 [mEh]       3.25623751 [kcal/mol]      13.62409773 [kJ/mol]

    Induction                     -31.13473368 [mEh]     -19.53734035 [kcal/mol]     -81.74423202 [kJ/mol]
      Ind20,r                     -55.45968287 [mEh]     -34.80147641 [kcal/mol]    -145.60937731 [kJ/mol]
      Ind22                       -10.20451557 [mEh]      -6.40343020 [kcal/mol]     -26.79195195 [kJ/mol]
      Exch-Ind20,r                 30.23697112 [mEh]      18.97398584 [kcal/mol]      79.38715674 [kJ/mol]
      Exch-Ind22                    5.56356666 [mEh]       3.49119079 [kcal/mol]      14.60714226 [kJ/mol]
      delta HF,r (2)               -1.27107302 [mEh]      -0.79761036 [kcal/mol]      -3.33720176 [kJ/mol]

    Dispersion                    -11.76753771 [mEh]      -7.38424140 [kcal/mol]     -30.89566600 [kJ/mol]
      Disp20                      -13.79343615 [mEh]      -8.65551186 [kcal/mol]     -36.21466163 [kJ/mol]
      Disp21                        1.99979346 [mEh]       1.25488934 [kcal/mol]       5.25045700 [kJ/mol]
      Disp22 (SDQ)                 -0.18996581 [mEh]      -0.11920534 [kcal/mol]      -0.49875515 [kJ/mol]
      Disp22 (T)                   -1.47141563 [mEh]      -0.92332725 [kcal/mol]      -3.86320120 [kJ/mol]
      Est. Disp22 (T)              -1.58310224 [mEh]      -0.99341165 [kcal/mol]      -4.15643436 [kJ/mol]
      Exch-Disp20                   1.79917303 [mEh]       1.12899812 [kcal/mol]       4.72372815 [kJ/mol]

  Total HF                       -110.16019112 [mEh]     -69.12656356 [kcal/mol]    -289.22554194 [kJ/mol]
  Total SAPT0                    -122.15445424 [mEh]     -76.65307730 [kcal/mol]    -320.71647542 [kJ/mol]
  Total SAPT2                    -116.52584375 [mEh]     -73.12107089 [kcal/mol]    -305.93856061 [kJ/mol]
  Total SAPT2+                   -116.29911834 [mEh]     -72.97879855 [kcal/mol]    -305.34329312 [kJ/mol]

  Special recipe for scaled SAPT0 (see Manual):
    Electrostatics sSAPT0        -126.13157549 [mEh]     -79.14875856 [kcal/mol]    -331.15840583 [kJ/mol]
    Exchange sSAPT0                42.46516914 [mEh]      26.64729594 [kcal/mol]     111.49228622 [kJ/mol]
    Induction sSAPT0              -26.27965831 [mEh]     -16.49073456 [kcal/mol]     -68.99723339 [kJ/mol]
    Dispersion sSAPT0             -11.98152208 [mEh]      -7.51851861 [kcal/mol]     -31.45748188 [kJ/mol]
  Total sSAPT0                   -121.92758674 [mEh]     -76.51071579 [kcal/mol]    -320.12083488 [kJ/mol]
  --------------------------------------------------------------------------------------------------------

*** Psi4 exiting successfully. Buy a developer a beer!
