                               Psi4 1.9 release

  ==> Input File <==

--------------------------------------------------------------------------
MEMORY 60 GB

molecule dimer {
1 1
K      0.000000     0.000000     0.000000
--
0 1
O      0.075155    -1.723621    -2.222691
H      0.160553    -2.664415    -2.167190
H      0.364851    -1.484375    -3.131935
O      1.231668    -2.456321     1.234605
H      1.127068    -3.384287     0.950491
H      0.887056    -2.271199     2.158531
O     -2.591511    -1.086420     0.720781
H     -3.095590    -1.651979     1.265500
H     -3.189225    -0.757403     0.067002
O      0.999639     2.617895     0.271985
H      0.388983     3.122801     0.770979
H      1.638461     2.439843     1.007245
O      1.255850     0.564449     2.393699
H      1.293308     0.072444     3.193687
H      1.888924     1.216741     2.629633

units ang
no_reorient
no_com
symmetry c1
}

set {
basis        aug-cc-pVTZ
scf_type     df
}

energy("sapt2+")
--------------------------------------------------------------------------

  //              Dimer HF             //
    Molecular point group: c1
  Charge       = 1
  Multiplicity = 1
  Basis Set: AUG-CC-PVTZ
    Blend: AUG-CC-PVTZ
  Basis Set: (AUG-CC-PVTZ AUX)
    Blend: AUG-CC-PVTZ-JKFIT + DEF2-UNIVERSAL-JKFIT
  @DF-RHF Final Energy:  -979.38918240579164
    Total Energy =                       -979.3891824057916438
 Dipole X            :        -17.7323948           17.4436782           -0.2887166
 Dipole Y            :         40.6328135          -41.6381744           -1.0053610
 Dipole Z            :        -47.5868929           49.0024409            1.4155481
 Magnitude           :                                                    1.7600807
  //            Monomer A HF           //
    Molecular point group: c1
  Multiplicity = 1
  Basis Set: AUG-CC-PVTZ
    Blend: AUG-CC-PVTZ
  Basis Set: (AUG-CC-PVTZ AUX)
    Blend: AUG-CC-PVTZ-JKFIT + DEF2-UNIVERSAL-JKFIT
  @DF-RHF Final Energy:  -599.01751547344884
    Total Energy =                       -599.0175154734488387
  //            Monomer B HF           //
    Molecular point group: c1

    Geometry (in Angstrom), charge = 0, multiplicity = 1:

       Center              X                  Y                   Z               Mass
    ------------   -----------------  -----------------  -----------------  -----------------
      Gh(K)           0.000000000000     0.000000000000     0.000000000000    38.963706486400
         O            0.075155000000    -1.723621000000    -2.222691000000    15.994914619570
         H            0.160553000000    -2.664415000000    -2.167190000000     1.007825032230
         H            0.364851000000    -1.484375000000    -3.131935000000     1.007825032230
         O            1.231668000000    -2.456321000000     1.234605000000    15.994914619570
         H            1.127068000000    -3.384287000000     0.950491000000     1.007825032230
         H            0.887056000000    -2.271199000000     2.158531000000     1.007825032230
         O           -2.591511000000    -1.086420000000     0.720781000000    15.994914619570
         H           -3.095590000000    -1.651979000000     1.265500000000     1.007825032230
         H           -3.189225000000    -0.757403000000     0.067002000000     1.007825032230
         O            0.999639000000     2.617895000000     0.271985000000    15.994914619570
         H            0.388983000000     3.122801000000     0.770979000000     1.007825032230
         H            1.638461000000     2.439843000000     1.007245000000     1.007825032230
         O            1.255850000000     0.564449000000     2.393699000000    15.994914619570
         H            1.293308000000     0.072444000000     3.193687000000     1.007825032230
         H            1.888924000000     1.216741000000     2.629633000000     1.007825032230

  Charge       = 0
  Multiplicity = 1
  Basis Set: AUG-CC-PVTZ
    Blend: AUG-CC-PVTZ
  Basis Set: (AUG-CC-PVTZ AUX)
    Blend: AUG-CC-PVTZ-JKFIT + DEF2-UNIVERSAL-JKFIT

    Orbital Energies [Eh]
    ---------------------

    Doubly Occupied:

       1A    -20.563034     2A    -20.545661     3A    -20.543940
       4A    -20.542997     5A    -20.542798     6A     -1.366688
       7A     -1.342849     8A     -1.328945     9A     -1.323660
      10A     -1.308755    11A     -0.716053    12A     -0.711255
      13A     -0.693738    14A     -0.690148    15A     -0.669893
      16A     -0.597636    17A     -0.569958    18A     -0.564741
      19A     -0.553742    20A     -0.536416    21A     -0.509289
      22A     -0.491720    23A     -0.483965    24A     -0.482594
      25A     -0.480317

  @DF-RHF Final Energy:  -380.27224873087107

   => Energetics <=

    Nuclear Repulsion Energy =            169.6072396871895194
    One-Electron Energy =                -863.4373826286952180
    Two-Electron Energy =                 313.5578942106346858
    Total Energy =                       -380.2722487308710697
 Dipole X            :        -17.8238578           17.4436782           -0.3801795
 Dipole Y            :         40.8215966          -41.6381744           -0.8165779
 Dipole Z            :        -47.7963669           49.0024409            1.2060740
 Magnitude           :                                                    1.5053074

    SAPT Results
  --------------------------------------------------------------------------------------------------------
    Electrostatics                -97.13063430 [mEh]     -60.95039322 [kcal/mol]    -255.01644522 [kJ/mol]
      Elst10,r                   -102.37796690 [mEh]     -64.24314414 [kcal/mol]    -268.79331507 [kJ/mol]
      Elst12,r                      5.24733260 [mEh]       3.29275092 [kcal/mol]      13.77686985 [kJ/mol]

    Exchange                       25.61499039 [mEh]      16.07364914 [kcal/mol]      67.25214799 [kJ/mol]
      Exch10                       22.76227024 [mEh]      14.28354022 [kcal/mol]      59.76233228 [kJ/mol]
      Exch10(S^2)                  22.72882545 [mEh]      14.26255330 [kcal/mol]      59.67452299 [kJ/mol]
      Exch11(S^2)                  -0.11987615 [mEh]      -0.07522342 [kcal/mol]      -0.31473479 [kJ/mol]
      Exch12(S^2)                   2.97259630 [mEh]       1.86533234 [kcal/mol]       7.80455050 [kJ/mol]

    Induction                     -23.06677896 [mEh]     -14.47462233 [kcal/mol]     -60.56181982 [kJ/mol]
      Ind20,r                     -35.02612098 [mEh]     -21.97922274 [kcal/mol]     -91.96106795 [kJ/mol]
      Ind22                        -5.99821156 [mEh]      -3.76393458 [kcal/mol]     -15.74830229 [kJ/mol]
      Exch-Ind20,r                 15.96462904 [mEh]      10.01795597 [kcal/mol]      41.91512777 [kJ/mol]
      Exch-Ind22                    2.73393741 [mEh]       1.71557163 [kcal/mol]       7.17795168 [kJ/mol]
      delta HF,r (2)               -0.74101287 [mEh]      -0.46499260 [kcal/mol]      -1.94552903 [kJ/mol]

    Dispersion                     -7.71705422 [mEh]      -4.84252463 [kcal/mol]     -20.26112306 [kJ/mol]
      Disp20                       -8.77736798 [mEh]      -5.50788156 [kcal/mol]     -23.04497646 [kJ/mol]
      Disp21                        1.22879378 [mEh]       0.77107974 [kcal/mol]       3.22619762 [kJ/mol]
      Disp22 (SDQ)                 -0.10845231 [mEh]      -0.06805485 [kcal/mol]      -0.28474151 [kJ/mol]
      Disp22 (T)                   -0.91369114 [mEh]      -0.57334985 [kcal/mol]      -2.39889576 [kJ/mol]
      Est. Disp22 (T)              -0.98685474 [mEh]      -0.61926070 [kcal/mol]      -2.59098677 [kJ/mol]
      Exch-Disp20                   0.92682704 [mEh]       0.58159275 [kcal/mol]       2.43338405 [kJ/mol]

  Total HF                        -99.41820147 [mEh]     -62.38586329 [kcal/mol]    -261.02245200 [kJ/mol]
  Total SAPT0                    -107.26874241 [mEh]     -67.31215211 [kcal/mol]    -281.63404441 [kJ/mol]
  Total SAPT2                    -102.43296382 [mEh]     -64.27765522 [kcal/mol]    -268.93770945 [kJ/mol]
  Total SAPT2+                   -102.29947709 [mEh]     -64.19389104 [kcal/mol]    -268.58724010 [kJ/mol]

  Special recipe for scaled SAPT0 (see Manual):
    Electrostatics sSAPT0        -102.37796690 [mEh]     -64.24314414 [kcal/mol]    -268.79331507 [kJ/mol]
    Exchange sSAPT0                22.76227024 [mEh]      14.28354022 [kcal/mol]      59.76233228 [kJ/mol]
    Induction sSAPT0              -19.73192662 [mEh]     -12.38197089 [kcal/mol]     -51.80616620 [kJ/mol]
    Dispersion sSAPT0              -7.84644352 [mEh]      -4.92371765 [kcal/mol]     -20.60083463 [kJ/mol]
  Total sSAPT0                   -107.19406681 [mEh]     -67.26529245 [kcal/mol]    -281.43798363 [kJ/mol]
  --------------------------------------------------------------------------------------------------------

*** Psi4 exiting successfully. Buy a developer a beer!
