                               Psi4 1.9 release

  ==> Input File <==

--------------------------------------------------------------------------
MEMORY 60 GB

molecule dimer {
1 1
K      0.000000     0.000000     0.000000
--
0 1
O      1.803653    -1.847112     0.206100
H      1.708783    -2.680683    -0.284385
H      2.119183    -2.134639     1.088298
O     -2.728888     0.492668     0.134493
H     -3.517786     0.992519    -0.173322
H     -3.011923    -0.394222     0.363049
O      1.771017     1.498733     1.768874
H      2.165305     0.873233     2.367554
H      2.327225     2.217179     1.679509
O     -1.232019    -2.027642    -1.142992
H     -0.978584    -2.636571    -1.824547
H     -1.720507    -2.476302    -0.401567
O      0.256748     1.390877    -2.161874
H     -0.134506     2.251599    -2.418476
H      1.075887     1.688448    -1.702877

units ang
no_reorient
no_com
symmetry c1
}

set {
basis        aug-cc-pVTZ
scf_type     df
}

energy("sapt2+")
--------------------------------------------------------------------------

  //              Dimer HF             //
    Molecular point group: c1
  Charge       = 1
  Multiplicity = 1
  Basis Set: AUG-CC-PVTZ
    Blend: AUG-CC-PVTZ
  Basis Set: (AUG-CC-PVTZ AUX)
    Blend: AUG-CC-PVTZ-JKFIT + DEF2-UNIVERSAL-JKFIT
  @DF-RHF Final Energy:  -979.38622908240791
    Total Energy =                       -979.3862290824079082
 Dipole X            :          2.0671222           -1.8950835            0.1720387
 Dipole Y            :         10.8450547          -11.7904681           -0.9454134
 Dipole Z            :         21.0317961          -20.5412398            0.4905563
 Magnitude           :                                                    1.0789111
  //            Monomer A HF           //
    Molecular point group: c1
  Multiplicity = 1
  Basis Set: AUG-CC-PVTZ
    Blend: AUG-CC-PVTZ
  Basis Set: (AUG-CC-PVTZ AUX)
    Blend: AUG-CC-PVTZ-JKFIT + DEF2-UNIVERSAL-JKFIT
  @DF-RHF Final Energy:  -599.01751629859530
    Total Energy =                       -599.0175162985951829
  //            Monomer B HF           //
    Molecular point group: c1

    Geometry (in Angstrom), charge = 0, multiplicity = 1:

       Center              X                  Y                   Z               Mass
    ------------   -----------------  -----------------  -----------------  -----------------
      Gh(K)           0.000000000000     0.000000000000     0.000000000000    38.963706486400
         O            1.803653000000    -1.847112000000     0.206100000000    15.994914619570
         H            1.708783000000    -2.680683000000    -0.284385000000     1.007825032230
         H            2.119183000000    -2.134639000000     1.088298000000     1.007825032230
         O           -2.728888000000     0.492668000000     0.134493000000    15.994914619570
         H           -3.517786000000     0.992519000000    -0.173322000000     1.007825032230
         H           -3.011923000000    -0.394222000000     0.363049000000     1.007825032230
         O            1.771017000000     1.498733000000     1.768874000000    15.994914619570
         H            2.165305000000     0.873233000000     2.367554000000     1.007825032230
         H            2.327225000000     2.217179000000     1.679509000000     1.007825032230
         O           -1.232019000000    -2.027642000000    -1.142992000000    15.994914619570
         H           -0.978584000000    -2.636571000000    -1.824547000000     1.007825032230
         H           -1.720507000000    -2.476302000000    -0.401567000000     1.007825032230
         O            0.256748000000     1.390877000000    -2.161874000000    15.994914619570
         H           -0.134506000000     2.251599000000    -2.418476000000     1.007825032230
         H            1.075887000000     1.688448000000    -1.702877000000     1.007825032230

  Charge       = 0
  Multiplicity = 1
  Basis Set: AUG-CC-PVTZ
    Blend: AUG-CC-PVTZ
  Basis Set: (AUG-CC-PVTZ AUX)
    Blend: AUG-CC-PVTZ-JKFIT + DEF2-UNIVERSAL-JKFIT

    Orbital Energies [Eh]
    ---------------------

    Doubly Occupied:

       1A    -20.551949     2A    -20.545439     3A    -20.545420
       4A    -20.539146     5A    -20.535070     6A     -1.348879
       7A     -1.325907     8A     -1.321490     9A     -1.315243
      10A     -1.305177    11A     -0.726107    12A     -0.705750
      13A     -0.687258    14A     -0.686831    15A     -0.659065
      16A     -0.564709    17A     -0.561877    18A     -0.549557
      19A     -0.545308    20A     -0.541587    21A     -0.495579
      22A     -0.495012    23A     -0.482286    24A     -0.475896
      25A     -0.470123

  @DF-RHF Final Energy:  -380.27573197943082

   => Energetics <=

    Nuclear Repulsion Energy =            171.2641359144436990
    One-Electron Energy =                -867.1183964312886019
    Two-Electron Energy =                 315.5785285374140585
    Total Energy =                       -380.2757319794308160
 Dipole X            :          2.1139516           -1.8950835            0.2188681
 Dipole Y            :         10.9477224          -11.7904681           -0.8427457
 Dipole Z            :         21.2172020          -20.5412398            0.6759621
 Magnitude           :                                                    1.1022923

    SAPT Results
  --------------------------------------------------------------------------------------------------------
    Electrostatics               -109.65515469 [mEh]     -68.80964842 [kcal/mol]    -287.89956898 [kJ/mol]
      Elst10,r                   -114.47648503 [mEh]     -71.83507888 [kcal/mol]    -300.55797005 [kJ/mol]
      Elst12,r                      4.82133034 [mEh]       3.02543047 [kcal/mol]      12.65840107 [kJ/mol]

    Exchange                       51.24113128 [mEh]      32.15429533 [kcal/mol]     134.53357165 [kJ/mol]
      Exch10                       46.56099151 [mEh]      29.21746328 [kcal/mol]     122.24586636 [kJ/mol]
      Exch10(S^2)                  46.41434745 [mEh]      29.12544274 [kcal/mol]     121.86085244 [kJ/mol]
      Exch11(S^2)                  -0.34515422 [mEh]      -0.21658754 [kcal/mol]      -0.90620227 [kJ/mol]
      Exch12(S^2)                   5.02529399 [mEh]       3.15341959 [kcal/mol]      13.19390756 [kJ/mol]

    Induction                     -29.19280424 [mEh]     -18.31876122 [kcal/mol]     -76.64569696 [kJ/mol]
      Ind20,r                     -57.39837386 [mEh]     -36.01802337 [kcal/mol]    -150.69940980 [kJ/mol]
      Ind22                       -10.02752444 [mEh]      -6.29236659 [kcal/mol]     -26.32726179 [kJ/mol]
      Exch-Ind20,r                 33.77226258 [mEh]      21.19241472 [kcal/mol]      88.66906319 [kJ/mol]
      Exch-Ind22                    5.90003106 [mEh]       3.70232538 [kcal/mol]      15.49052941 [kJ/mol]
      delta HF,r (2)               -1.43919958 [mEh]      -0.90311137 [kcal/mol]      -3.77861797 [kJ/mol]

    Dispersion                    -11.24580515 [mEh]      -7.05684927 [kcal/mol]     -29.52585736 [kJ/mol]
      Disp20                      -13.39610057 [mEh]      -8.40618002 [kcal/mol]     -35.17145719 [kJ/mol]
      Disp21                        1.87278121 [mEh]       1.17518795 [kcal/mol]       4.91698638 [kJ/mol]
      Disp22 (SDQ)                 -0.13228643 [mEh]      -0.08301099 [kcal/mol]      -0.34731799 [kJ/mol]
      Disp22 (T)                   -1.37794153 [mEh]      -0.86467136 [kcal/mol]      -3.61778499 [kJ/mol]
      Est. Disp22 (T)              -1.49367788 [mEh]      -0.93729702 [kcal/mol]      -3.92165074 [kJ/mol]
      Exch-Disp20                   1.90347852 [mEh]       1.19445081 [kcal/mol]       4.99758218 [kJ/mol]

  Total HF                        -92.98080438 [mEh]     -58.34633563 [kcal/mol]    -244.12106827 [kJ/mol]
  Total SAPT0                    -104.47342642 [mEh]     -65.55806484 [kcal/mol]    -274.29494328 [kJ/mol]
  Total SAPT2                     -99.09944969 [mEh]     -62.18584352 [kcal/mol]    -260.18556930 [kJ/mol]
  Total SAPT2+                    -98.85263280 [mEh]     -62.03096359 [kcal/mol]    -259.53755165 [kJ/mol]

  Special recipe for scaled SAPT0 (see Manual):
    Electrostatics sSAPT0        -114.47648503 [mEh]     -71.83507888 [kcal/mol]    -300.55797005 [kJ/mol]
    Exchange sSAPT0                46.56099151 [mEh]      29.21746328 [kcal/mol]     122.24586636 [kJ/mol]
    Induction sSAPT0              -24.74419256 [mEh]     -15.52721525 [kcal/mol]     -64.96586862 [kJ/mol]
    Dispersion sSAPT0             -11.47452311 [mEh]      -7.20037196 [kcal/mol]     -30.12635628 [kJ/mol]
  Total sSAPT0                   -104.13420920 [mEh]     -65.34520282 [kcal/mol]    -273.40432860 [kJ/mol]
  --------------------------------------------------------------------------------------------------------

*** Psi4 exiting successfully. Buy a developer a beer!
