                               Psi4 1.9 release

  ==> Input File <==

--------------------------------------------------------------------------
MEMORY 60 GB

molecule dimer {
1 1
K      0.000000     0.000000     0.000000
--
0 1
O     -1.457044    -2.550395     0.407014
H     -0.947257    -2.879841     1.151043
H     -2.328321    -2.243661     0.699340
O      2.038414    -1.767961     0.341126
H      2.837008    -1.255039     0.326724
H      1.966681    -2.473380    -0.315675
O     -1.661440     0.175056     1.991238
H     -0.975522     0.765504     2.308795
H     -2.384597     0.634620     1.603907
O      1.704232     1.691653    -1.239466
H      1.159358     2.227433    -1.799160
H      1.823795     2.247273    -0.485218
O     -1.743882     0.339578    -1.736908
H     -2.201474    -0.503521    -1.987939
H     -2.102341     0.953944    -2.383414

units ang
no_reorient
no_com
symmetry c1
}

set {
basis        aug-cc-pVTZ
scf_type     df
}

energy("sapt2+")
--------------------------------------------------------------------------

  //              Dimer HF             //
    Molecular point group: c1
  Charge       = 1
  Multiplicity = 1
  Basis Set: AUG-CC-PVTZ
    Blend: AUG-CC-PVTZ
  Basis Set: (AUG-CC-PVTZ AUX)
    Blend: AUG-CC-PVTZ-JKFIT + DEF2-UNIVERSAL-JKFIT
  @DF-RHF Final Energy:  -979.37960255669066
    Total Energy =                       -979.3796025566906565
 Dipole X            :         22.1825415          -22.8853960           -0.7028545
 Dipole Y            :         37.7210106          -36.7045663            1.0164443
 Dipole Z            :          4.8604409           -5.2488371           -0.3883962
 Magnitude           :                                                    1.2953822
  //            Monomer A HF           //
    Molecular point group: c1
  Multiplicity = 1
  Basis Set: AUG-CC-PVTZ
    Blend: AUG-CC-PVTZ
  Basis Set: (AUG-CC-PVTZ AUX)
    Blend: AUG-CC-PVTZ-JKFIT + DEF2-UNIVERSAL-JKFIT
  @DF-RHF Final Energy:  -599.01751667592532
    Total Energy =                       -599.0175166759253216
  //            Monomer B HF           //
    Molecular point group: c1

    Geometry (in Angstrom), charge = 0, multiplicity = 1:

       Center              X                  Y                   Z               Mass
    ------------   -----------------  -----------------  -----------------  -----------------
      Gh(K)           0.000000000000     0.000000000000     0.000000000000    38.963706486400
         O           -1.457044000000    -2.550395000000     0.407014000000    15.994914619570
         H           -0.947257000000    -2.879841000000     1.151043000000     1.007825032230
         H           -2.328321000000    -2.243661000000     0.699340000000     1.007825032230
         O            2.038414000000    -1.767961000000     0.341126000000    15.994914619570
         H            2.837008000000    -1.255039000000     0.326724000000     1.007825032230
         H            1.966681000000    -2.473380000000    -0.315675000000     1.007825032230
         O           -1.661440000000     0.175056000000     1.991238000000    15.994914619570
         H           -0.975522000000     0.765504000000     2.308795000000     1.007825032230
         H           -2.384597000000     0.634620000000     1.603907000000     1.007825032230
         O            1.704232000000     1.691653000000    -1.239466000000    15.994914619570
         H            1.159358000000     2.227433000000    -1.799160000000     1.007825032230
         H            1.823795000000     2.247273000000    -0.485218000000     1.007825032230
         O           -1.743882000000     0.339578000000    -1.736908000000    15.994914619570
         H           -2.201474000000    -0.503521000000    -1.987939000000     1.007825032230
         H           -2.102341000000     0.953944000000    -2.383414000000     1.007825032230

  Charge       = 0
  Multiplicity = 1
  Basis Set: AUG-CC-PVTZ
    Blend: AUG-CC-PVTZ
  Basis Set: (AUG-CC-PVTZ AUX)
    Blend: AUG-CC-PVTZ-JKFIT + DEF2-UNIVERSAL-JKFIT

    Orbital Energies [Eh]
    ---------------------

    Doubly Occupied:

       1A    -20.558604     2A    -20.551530     3A    -20.544117
       4A    -20.535961     5A    -20.531686     6A     -1.346848
       7A     -1.334723     8A     -1.332893     9A     -1.319667
      10A     -1.312287    11A     -0.720518    12A     -0.713755
      13A     -0.705371    14A     -0.693180    15A     -0.687670
      16A     -0.576971    17A     -0.572438    18A     -0.556888
      19A     -0.538664    20A     -0.536132    21A     -0.498670
      22A     -0.495969    23A     -0.491193    24A     -0.480605
      25A     -0.471478

  @DF-RHF Final Energy:  -380.29003075284112

   => Energetics <=

    Nuclear Repulsion Energy =            174.2445696339670462
    One-Electron Energy =                -872.8535560200958798
    Two-Electron Energy =                 318.3189556332877714
    Total Energy =                       -380.2900307528411190
 Dipole X            :         22.3527042          -22.8853960           -0.5326918
 Dipole Y            :         37.8736971          -36.7045663            1.1691309
 Dipole Z            :          4.9675296           -5.2488371           -0.2813075
 Magnitude           :                                                    1.3152040

    SAPT Results
  --------------------------------------------------------------------------------------------------------
    Electrostatics               -101.36379616 [mEh]     -63.60674239 [kcal/mol]    -266.13061015 [kJ/mol]
      Elst10,r                   -102.70486341 [mEh]     -64.44827479 [kcal/mol]    -269.65158173 [kJ/mol]
      Elst12,r                      1.34106725 [mEh]       0.84153240 [kcal/mol]       3.52097158 [kJ/mol]

    Exchange                       62.62134832 [mEh]      39.29548933 [kcal/mol]     164.41232735 [kJ/mol]
      Exch10                       56.36457417 [mEh]      35.36930428 [kcal/mol]     147.98516910 [kJ/mol]
      Exch10(S^2)                  56.17523071 [mEh]      35.25048946 [kcal/mol]     147.48804791 [kJ/mol]
      Exch11(S^2)                  -0.50298459 [mEh]      -0.31562759 [kcal/mol]      -1.32058586 [kJ/mol]
      Exch12(S^2)                   6.75975873 [mEh]       4.24181264 [kcal/mol]      17.74774410 [kJ/mol]

    Induction                     -30.41847167 [mEh]     -19.08787915 [kcal/mol]     -79.86368638 [kJ/mol]
      Ind20,r                     -68.54446372 [mEh]     -43.01230036 [kcal/mol]    -179.96346470 [kJ/mol]
      Ind22                       -13.37048491 [mEh]      -8.39010595 [kcal/mol]     -35.10420328 [kJ/mol]
      Exch-Ind20,r                 44.43105252 [mEh]      27.88090638 [kcal/mol]     116.65371231 [kJ/mol]
      Exch-Ind22                    8.66685192 [mEh]       5.43853169 [kcal/mol]      22.75481658 [kJ/mol]
      delta HF,r (2)               -1.60142749 [mEh]      -1.00491092 [kcal/mol]      -4.20454729 [kJ/mol]

    Dispersion                    -12.25458730 [mEh]      -7.68986963 [kcal/mol]     -32.17441453 [kJ/mol]
      Disp20                      -14.66484668 [mEh]      -9.20233022 [kcal/mol]     -38.50254965 [kJ/mol]
      Disp21                        1.89521244 [mEh]       1.18926376 [kcal/mol]       4.97587956 [kJ/mol]
      Disp22 (SDQ)                 -0.16786217 [mEh]      -0.10533510 [kcal/mol]      -0.44072206 [kJ/mol]
      Disp22 (T)                   -1.53675445 [mEh]      -0.96432798 [kcal/mol]      -4.03474826 [kJ/mol]
      Est. Disp22 (T)              -1.66167737 [mEh]      -1.04271829 [kcal/mol]      -4.36273333 [kJ/mol]
      Exch-Disp20                   2.34458648 [mEh]       1.47125023 [kcal/mol]       6.15571095 [kJ/mol]

  Total HF                        -72.05512792 [mEh]     -45.21527541 [kcal/mol]    -189.18071230 [kJ/mol]
  Total SAPT0                     -84.37538812 [mEh]     -52.94635540 [kcal/mol]    -221.52755100 [kJ/mol]
  Total SAPT2                     -81.48117972 [mEh]     -51.13021221 [kcal/mol]    -213.92880788 [kJ/mol]
  Total SAPT2+                    -81.41550682 [mEh]     -51.08900184 [kcal/mol]    -213.75638371 [kJ/mol]

  Special recipe for scaled SAPT0 (see Manual):
    Electrostatics sSAPT0        -102.70486341 [mEh]     -64.44827479 [kcal/mol]    -269.65158173 [kJ/mol]
    Exchange sSAPT0                56.36457417 [mEh]      35.36930428 [kcal/mol]     147.98516910 [kJ/mol]
    Induction sSAPT0              -25.26404658 [mEh]     -15.85342857 [kcal/mol]     -66.33074515 [kJ/mol]
    Dispersion sSAPT0             -12.29647231 [mEh]      -7.71615287 [kcal/mol]     -32.28438360 [kJ/mol]
  Total sSAPT0                    -83.90080812 [mEh]     -52.64855195 [kcal/mol]    -220.28154137 [kJ/mol]
  --------------------------------------------------------------------------------------------------------

*** Psi4 exiting successfully. Buy a developer a beer!
