                               Psi4 1.9 release

  ==> Input File <==

--------------------------------------------------------------------------
MEMORY 60 GB

molecule dimer {
1 1
K      0.000000     0.000000     0.000000
--
0 1
O      1.752063    -1.955740    -0.896493
H      2.693070    -2.147140    -1.012955
H      1.399783    -2.564561    -0.243759
O     -2.037636    -1.672138     0.117504
H     -2.427489    -2.365114     0.675856
H     -2.816892    -1.155028    -0.141307
O      0.519565    -0.340148     2.890005
H      0.272037     0.564577     2.764165
H     -0.190010    -0.696801     3.468111
O     -1.943971     1.609727     0.991987
H     -2.039868     2.479130     0.578168
H     -2.271273     1.714132     1.898834
O     -0.866082     1.453293    -2.302765
H     -0.118946     2.054102    -2.495125
H     -1.462586     2.104021    -1.901122

units ang
no_reorient
no_com
symmetry c1
}

set {
basis        aug-cc-pVTZ
scf_type     df
}

energy("sapt2+")
--------------------------------------------------------------------------

  //              Dimer HF             //
    Molecular point group: c1
  Charge       = 1
  Multiplicity = 1
  Basis Set: AUG-CC-PVTZ
    Blend: AUG-CC-PVTZ
  Basis Set: (AUG-CC-PVTZ AUX)
    Blend: AUG-CC-PVTZ-JKFIT + DEF2-UNIVERSAL-JKFIT
  @DF-RHF Final Energy:  -979.38854250788893
    Total Energy =                       -979.3885425078889284
 Dipole X            :         50.6513429          -52.1010003           -1.4496573
 Dipole Y            :         14.7572737          -13.7056734            1.0516003
 Dipole Z            :        -17.5484726           18.8835985            1.3351259
 Magnitude           :                                                    2.2338153
  //            Monomer A HF           //
    Molecular point group: c1
  Multiplicity = 1
  Basis Set: AUG-CC-PVTZ
    Blend: AUG-CC-PVTZ
  Basis Set: (AUG-CC-PVTZ AUX)
    Blend: AUG-CC-PVTZ-JKFIT + DEF2-UNIVERSAL-JKFIT
  @DF-RHF Final Energy:  -599.01751620750701
    Total Energy =                       -599.0175162075070148
  //            Monomer B HF           //
    Molecular point group: c1

    Geometry (in Angstrom), charge = 0, multiplicity = 1:

       Center              X                  Y                   Z               Mass
    ------------   -----------------  -----------------  -----------------  -----------------
      Gh(K)           0.000000000000     0.000000000000     0.000000000000    38.963706486400
         O            1.752063000000    -1.955740000000    -0.896493000000    15.994914619570
         H            2.693070000000    -2.147140000000    -1.012955000000     1.007825032230
         H            1.399783000000    -2.564561000000    -0.243759000000     1.007825032230
         O           -2.037636000000    -1.672138000000     0.117504000000    15.994914619570
         H           -2.427489000000    -2.365114000000     0.675856000000     1.007825032230
         H           -2.816892000000    -1.155028000000    -0.141307000000     1.007825032230
         O            0.519565000000    -0.340148000000     2.890005000000    15.994914619570
         H            0.272037000000     0.564577000000     2.764165000000     1.007825032230
         H           -0.190010000000    -0.696801000000     3.468111000000     1.007825032230
         O           -1.943971000000     1.609727000000     0.991987000000    15.994914619570
         H           -2.039868000000     2.479130000000     0.578168000000     1.007825032230
         H           -2.271273000000     1.714132000000     1.898834000000     1.007825032230
         O           -0.866082000000     1.453293000000    -2.302765000000    15.994914619570
         H           -0.118946000000     2.054102000000    -2.495125000000     1.007825032230
         H           -1.462586000000     2.104021000000    -1.901122000000     1.007825032230

  Charge       = 0
  Multiplicity = 1
  Basis Set: AUG-CC-PVTZ
    Blend: AUG-CC-PVTZ
  Basis Set: (AUG-CC-PVTZ AUX)
    Blend: AUG-CC-PVTZ-JKFIT + DEF2-UNIVERSAL-JKFIT

    Orbital Energies [Eh]
    ---------------------

    Doubly Occupied:

       1A    -20.575789     2A    -20.555910     3A    -20.550458
       4A    -20.544937     5A    -20.533805     6A     -1.354289
       7A     -1.332661     8A     -1.332586     9A     -1.322440
      10A     -1.314745    11A     -0.721960    12A     -0.694428
      13A     -0.688285    14A     -0.680250    15A     -0.678504
      16A     -0.585486    17A     -0.575969    18A     -0.567092
      19A     -0.559560    20A     -0.542538    21A     -0.516245
      22A     -0.492839    23A     -0.491882    24A     -0.482695
      25A     -0.475427

  @DF-RHF Final Energy:  -380.28557910370256

   => Energetics <=

    Nuclear Repulsion Energy =            170.2368095256780975
    One-Electron Energy =                -864.7032052833122862
    Two-Electron Energy =                 314.1808166539316858
    Total Energy =                       -380.2855791037025597
 Dipole X            :         50.9396956          -52.1010003           -1.1613047
 Dipole Y            :         14.8682126          -13.7056734            1.1625392
 Dipole Z            :        -17.6350110           18.8835985            1.2485875
 Magnitude           :                                                    2.0637579

    SAPT Results
  --------------------------------------------------------------------------------------------------------
    Electrostatics                -92.29630078 [mEh]     -57.91680313 [kcal/mol]    -242.32390431 [kJ/mol]
      Elst10,r                    -95.94848817 [mEh]     -60.20858532 [kcal/mol]    -251.91272099 [kJ/mol]
      Elst12,r                      3.65218739 [mEh]       2.29178219 [kcal/mol]       9.58881668 [kJ/mol]

    Exchange                       37.02740407 [mEh]      23.23504684 [kcal/mol]      97.21543598 [kJ/mol]
      Exch10                       33.05403935 [mEh]      20.74172284 [kcal/mol]      86.78336835 [kJ/mol]
      Exch10(S^2)                  32.98507509 [mEh]      20.69844711 [kcal/mol]      86.60230272 [kJ/mol]
      Exch11(S^2)                  -0.22516905 [mEh]      -0.14129571 [kcal/mol]      -0.59118126 [kJ/mol]
      Exch12(S^2)                   4.19853377 [mEh]       2.63461972 [kcal/mol]      11.02324890 [kJ/mol]

    Induction                     -26.40699802 [mEh]     -16.57064143 [kcal/mol]     -69.33156375 [kJ/mol]
      Ind20,r                     -45.82754045 [mEh]     -28.75721579 [kcal/mol]    -120.32019087 [kJ/mol]
      Ind22                        -8.22510471 [mEh]      -5.16133113 [kcal/mol]     -21.59500945 [kJ/mol]
      Exch-Ind20,r                 24.35294388 [mEh]      15.28170300 [kcal/mol]      63.93864534 [kJ/mol]
      Exch-Ind22                    4.37085454 [mEh]       2.74275264 [kcal/mol]      11.47567703 [kJ/mol]
      delta HF,r (2)               -1.07815128 [mEh]      -0.67655014 [kcal/mol]      -2.83068579 [kJ/mol]

    Dispersion                     -9.47465528 [mEh]      -5.94543595 [kcal/mol]     -24.87570402 [kJ/mol]
      Disp20                      -10.96857444 [mEh]      -6.88288437 [kcal/mol]     -28.79798822 [kJ/mol]
      Disp21                        1.50609019 [mEh]       0.94508586 [kcal/mol]       3.95423925 [kJ/mol]
      Disp22 (SDQ)                 -0.13399589 [mEh]      -0.08408369 [kcal/mol]      -0.35180617 [kJ/mol]
      Disp22 (T)                   -1.15132227 [mEh]      -0.72246563 [kcal/mol]      -3.02279621 [kJ/mol]
      Est. Disp22 (T)              -1.24530723 [mEh]      -0.78144209 [kcal/mol]      -3.26955369 [kJ/mol]
      Exch-Disp20                   1.36713209 [mEh]       0.85788834 [kcal/mol]       3.58940481 [kJ/mol]

  Total HF                        -85.44719668 [mEh]     -53.61892542 [kcal/mol]    -224.34158397 [kJ/mol]
  Total SAPT0                     -95.04863903 [mEh]     -59.64392146 [kcal/mol]    -249.55016739 [kJ/mol]
  Total SAPT2                     -91.27733708 [mEh]     -57.27739376 [kcal/mol]    -239.64861549 [kJ/mol]
  Total SAPT2+                    -91.15055002 [mEh]     -57.19783368 [kcal/mol]    -239.31573610 [kJ/mol]

  Special recipe for scaled SAPT0 (see Manual):
    Electrostatics sSAPT0         -95.94848817 [mEh]     -60.20858532 [kcal/mol]    -251.91272099 [kJ/mol]
    Exchange sSAPT0                33.05403935 [mEh]      20.74172284 [kcal/mol]      86.78336835 [kJ/mol]
    Induction sSAPT0              -22.39967894 [mEh]     -14.05601075 [kcal/mol]     -58.81034896 [kJ/mol]
    Dispersion sSAPT0              -9.59284933 [mEh]      -6.01960383 [kcal/mol]     -25.18602243 [kJ/mol]
  Total sSAPT0                    -94.88697710 [mEh]     -59.54247707 [kcal/mol]    -249.12572404 [kJ/mol]
  --------------------------------------------------------------------------------------------------------

*** Psi4 exiting successfully. Buy a developer a beer!
