                               Psi4 1.9 release

  ==> Input File <==

--------------------------------------------------------------------------
MEMORY 60 GB

molecule dimer {
1 1
K      0.000000     0.000000     0.000000
--
0 1
O      0.049226     2.701947    -1.155143
H     -0.920606     2.740287    -1.218459
H      0.456142     2.515712    -2.012420
O     -1.447501    -0.454706     2.173556
H     -1.986228    -1.035711     1.657750
H     -1.199479    -0.982340     2.918186
O      0.653369    -2.372660     1.490410
H      0.618963    -2.151815     2.431321
H      0.120151    -3.194488     1.363670
O     -2.496333    -0.502934    -0.545027
H     -2.174543    -1.006544    -1.289153
H     -2.868617     0.221761    -1.038251
O      1.045807    -0.664263    -2.649852
H      0.737206    -0.257818    -3.449876
H      1.018814    -1.657837    -2.920530
O      1.773374     1.100513     1.657986
H      2.390244     1.790927     1.817412
H      1.689360     0.544883     2.439841

units ang
no_reorient
no_com
symmetry c1
}

set {
basis        aug-cc-pVTZ
scf_type     df
}

energy("sapt2+")
--------------------------------------------------------------------------

  //              Dimer HF             //
    Molecular point group: c1
  Charge       = 1
  Multiplicity = 1
  Basis Set: AUG-CC-PVTZ
    Blend: AUG-CC-PVTZ
  Basis Set: (AUG-CC-PVTZ AUX)
    Blend: AUG-CC-PVTZ-JKFIT + DEF2-UNIVERSAL-JKFIT
  @DF-RHF Final Energy: -1055.44231379847747
    Total Energy =                      -1055.4423137984772438
 Dipole X            :          9.5486816          -10.3841528           -0.8354712
 Dipole Y            :          6.2471551           -7.5774370           -1.3302820
 Dipole Z            :        -16.8039280           16.0152985           -0.7886295
 Magnitude           :                                                    1.7577255
  //            Monomer A HF           //
    Molecular point group: c1
  Multiplicity = 1
  Basis Set: AUG-CC-PVTZ
    Blend: AUG-CC-PVTZ
  Basis Set: (AUG-CC-PVTZ AUX)
    Blend: AUG-CC-PVTZ-JKFIT + DEF2-UNIVERSAL-JKFIT
  @DF-RHF Final Energy:  -599.01751705848437
    Total Energy =                       -599.0175170584844864
  //            Monomer B HF           //
    Molecular point group: c1

    Geometry (in Angstrom), charge = 0, multiplicity = 1:

       Center              X                  Y                   Z               Mass
    ------------   -----------------  -----------------  -----------------  -----------------
      Gh(K)           0.000000000000     0.000000000000     0.000000000000    38.963706486400
         O            0.049226000000     2.701947000000    -1.155143000000    15.994914619570
         H           -0.920606000000     2.740287000000    -1.218459000000     1.007825032230
         H            0.456142000000     2.515712000000    -2.012420000000     1.007825032230
         O           -1.447501000000    -0.454706000000     2.173556000000    15.994914619570
         H           -1.986228000000    -1.035711000000     1.657750000000     1.007825032230
         H           -1.199479000000    -0.982340000000     2.918186000000     1.007825032230
         O            0.653369000000    -2.372660000000     1.490410000000    15.994914619570
         H            0.618963000000    -2.151815000000     2.431321000000     1.007825032230
         H            0.120151000000    -3.194488000000     1.363670000000     1.007825032230
         O           -2.496333000000    -0.502934000000    -0.545027000000    15.994914619570
         H           -2.174543000000    -1.006544000000    -1.289153000000     1.007825032230
         H           -2.868617000000     0.221761000000    -1.038251000000     1.007825032230
         O            1.045807000000    -0.664263000000    -2.649852000000    15.994914619570
         H            0.737206000000    -0.257818000000    -3.449876000000     1.007825032230
         H            1.018814000000    -1.657837000000    -2.920530000000     1.007825032230
         O            1.773374000000     1.100513000000     1.657986000000    15.994914619570
         H            2.390244000000     1.790927000000     1.817412000000     1.007825032230
         H            1.689360000000     0.544883000000     2.439841000000     1.007825032230

  Charge       = 0
  Multiplicity = 1
  Basis Set: AUG-CC-PVTZ
    Blend: AUG-CC-PVTZ
  Basis Set: (AUG-CC-PVTZ AUX)
    Blend: AUG-CC-PVTZ-JKFIT + DEF2-UNIVERSAL-JKFIT

    Orbital Energies [Eh]
    ---------------------

    Doubly Occupied:

       1A    -20.569147     2A    -20.561844     3A    -20.555578
       4A    -20.539809     5A    -20.527888     6A    -20.524001
       7A     -1.354681     8A     -1.336549     9A     -1.331062
      10A     -1.322530    11A     -1.315873    12A     -1.312980
      13A     -0.703276    14A     -0.699197    15A     -0.697514
      16A     -0.691345    17A     -0.688434    18A     -0.687648
      19A     -0.593016    20A     -0.578212    21A     -0.563146
      22A     -0.550688    23A     -0.541868    24A     -0.531788
      25A     -0.507994    26A     -0.503431    27A     -0.501629
      28A     -0.479494    29A     -0.468513    30A     -0.464628

  @DF-RHF Final Energy:  -456.32973268571601

   => Energetics <=

    Nuclear Repulsion Energy =            245.6825631161977128
    One-Electron Energy =               -1120.6170567875153665
    Two-Electron Energy =                 418.6047609856016720
    Total Energy =                       -456.3297326857160101
 Dipole X            :          9.6040728          -10.3841528           -0.7800800
 Dipole Y            :          6.2819370           -7.5774370           -1.2955001
 Dipole Z            :        -16.9548299           16.0152985           -0.9395314
 Magnitude           :                                                    1.7803271

    SAPT Results
  --------------------------------------------------------------------------------------------------------
    Electrostatics               -109.87495883 [mEh]     -68.94757760 [kcal/mol]    -288.47666467 [kJ/mol]
      Elst10,r                   -113.44332843 [mEh]     -71.18676333 [kcal/mol]    -297.84541776 [kJ/mol]
      Elst12,r                      3.56836960 [mEh]       2.23918573 [kcal/mol]       9.36875309 [kJ/mol]

    Exchange                       50.10236654 [mEh]      31.43970966 [kcal/mol]     131.54374524 [kJ/mol]
      Exch10                       44.80144154 [mEh]      28.11332900 [kcal/mol]     117.62616855 [kJ/mol]
      Exch10(S^2)                  44.65512172 [mEh]      28.02151193 [kcal/mol]     117.24200594 [kJ/mol]
      Exch11(S^2)                  -0.44416281 [mEh]      -0.27871637 [kcal/mol]      -1.16614930 [kJ/mol]
      Exch12(S^2)                   5.74508782 [mEh]       3.60509703 [kcal/mol]      15.08372599 [kJ/mol]

    Induction                     -31.21946528 [mEh]     -19.59051023 [kcal/mol]     -81.96669480 [kJ/mol]
      Ind20,r                     -58.11202115 [mEh]     -36.46584381 [kcal/mol]    -152.57309051 [kJ/mol]
      Ind22                       -11.14076191 [mEh]      -6.99093365 [kcal/mol]     -29.25006637 [kJ/mol]
      Exch-Ind20,r                 33.08853720 [mEh]      20.76337057 [kcal/mol]      86.87394246 [kJ/mol]
      Exch-Ind22                    6.34346402 [mEh]       3.98058377 [kcal/mol]      16.65476248 [kJ/mol]
      delta HF,r (2)               -1.39868344 [mEh]      -0.87768711 [kcal/mol]      -3.67224286 [kJ/mol]

    Dispersion                    -12.00867790 [mEh]      -7.53555915 [kcal/mol]     -31.52877949 [kJ/mol]
      Disp20                      -14.04835250 [mEh]      -8.81547428 [kcal/mol]     -36.88394440 [kJ/mol]
      Disp21                        1.93395515 [mEh]       1.21357518 [kcal/mol]       5.07759854 [kJ/mol]
      Disp22 (SDQ)                 -0.18110504 [mEh]      -0.11364513 [kcal/mol]      -0.47549123 [kJ/mol]
      Disp22 (T)                   -1.50333904 [mEh]      -0.94335949 [kcal/mol]      -3.94701611 [kJ/mol]
      Est. Disp22 (T)              -1.61755832 [mEh]      -1.01503317 [kcal/mol]      -4.24689878 [kJ/mol]
      Exch-Disp20                   1.90438281 [mEh]       1.19501825 [kcal/mol]       4.99995637 [kJ/mol]

  Total HF                        -95.06405428 [mEh]     -59.65359467 [kcal/mol]    -249.59064012 [kJ/mol]
  Total SAPT0                    -107.20802397 [mEh]     -67.27405070 [kcal/mol]    -281.47462815 [kJ/mol]
  Total SAPT2                    -103.13602726 [mEh]     -64.71883419 [kcal/mol]    -270.78360226 [kJ/mol]
  Total SAPT2+                   -103.00073547 [mEh]     -64.63393732 [kcal/mol]    -270.42839373 [kJ/mol]

  Special recipe for scaled SAPT0 (see Manual):
    Electrostatics sSAPT0        -113.44332843 [mEh]     -71.18676333 [kcal/mol]    -297.84541776 [kJ/mol]
    Exchange sSAPT0                44.80144154 [mEh]      28.11332900 [kcal/mol]     117.62616855 [kJ/mol]
    Induction sSAPT0              -26.09584044 [mEh]     -16.37538710 [kcal/mol]     -68.51461963 [kJ/mol]
    Dispersion sSAPT0             -12.12518822 [mEh]      -7.60867048 [kcal/mol]     -31.83467728 [kJ/mol]
  Total sSAPT0                   -106.86291555 [mEh]     -67.05749190 [kcal/mol]    -280.56854612 [kJ/mol]
  --------------------------------------------------------------------------------------------------------

*** Psi4 exiting successfully. Buy a developer a beer!
