                               Psi4 1.9 release

  ==> Input File <==

--------------------------------------------------------------------------
MEMORY 60 GB

molecule dimer {
1 1
K      0.000000     0.000000     0.000000
--
0 1
O     -2.673776     0.948720     0.824417
H     -3.167263     0.143970     0.942318
H     -3.136901     1.459363     0.150868
O      0.110920     1.957449     2.167223
H      1.097248     2.052670     2.037989
H     -0.141234     1.268912     2.776564
O      1.687577    -1.962600     0.509768
H      1.167472    -2.750807     0.847882
H      2.480538    -2.345650     0.073359
O     -0.890535    -1.759466    -2.025758
H     -0.401801    -2.629097    -1.882489
H     -1.631369    -1.780708    -1.454003
O     -0.772890     1.155494    -2.301149
H     -0.888182     0.209431    -2.448873
H     -1.511275     1.637928    -2.717803

units ang
no_reorient
no_com
symmetry c1
}

set {
basis        aug-cc-pVTZ
scf_type     df
}

energy("sapt2+")
--------------------------------------------------------------------------

  //              Dimer HF             //
    Molecular point group: c1
  Charge       = 1
  Multiplicity = 1
  Basis Set: AUG-CC-PVTZ
    Blend: AUG-CC-PVTZ
  Basis Set: (AUG-CC-PVTZ AUX)
    Blend: AUG-CC-PVTZ-JKFIT + DEF2-UNIVERSAL-JKFIT
  @DF-RHF Final Energy:  -979.36915165100424
    Total Energy =                       -979.3691516510042447
 Dipole X            :         49.1865255          -49.9688922           -0.7823667
 Dipole Y            :         -2.3320383           -0.0325260           -2.3645643
 Dipole Z            :         15.5439200          -15.6434930           -0.0995730
 Magnitude           :                                                    2.4926244
  //            Monomer A HF           //
    Molecular point group: c1
  Multiplicity = 1
  Basis Set: AUG-CC-PVTZ
    Blend: AUG-CC-PVTZ
  Basis Set: (AUG-CC-PVTZ AUX)
    Blend: AUG-CC-PVTZ-JKFIT + DEF2-UNIVERSAL-JKFIT
  @DF-RHF Final Energy:  -599.01751603727564
    Total Energy =                       -599.0175160372757546
  //            Monomer B HF           //
    Molecular point group: c1

    Geometry (in Angstrom), charge = 0, multiplicity = 1:

       Center              X                  Y                   Z               Mass
    ------------   -----------------  -----------------  -----------------  -----------------
      Gh(K)           0.000000000000     0.000000000000     0.000000000000    38.963706486400
         O           -2.673776000000     0.948720000000     0.824417000000    15.994914619570
         H           -3.167263000000     0.143970000000     0.942318000000     1.007825032230
         H           -3.136901000000     1.459363000000     0.150868000000     1.007825032230
         O            0.110920000000     1.957449000000     2.167223000000    15.994914619570
         H            1.097248000000     2.052670000000     2.037989000000     1.007825032230
         H           -0.141234000000     1.268912000000     2.776564000000     1.007825032230
         O            1.687577000000    -1.962600000000     0.509768000000    15.994914619570
         H            1.167472000000    -2.750807000000     0.847882000000     1.007825032230
         H            2.480538000000    -2.345650000000     0.073359000000     1.007825032230
         O           -0.890535000000    -1.759466000000    -2.025758000000    15.994914619570
         H           -0.401801000000    -2.629097000000    -1.882489000000     1.007825032230
         H           -1.631369000000    -1.780708000000    -1.454003000000     1.007825032230
         O           -0.772890000000     1.155494000000    -2.301149000000    15.994914619570
         H           -0.888182000000     0.209431000000    -2.448873000000     1.007825032230
         H           -1.511275000000     1.637928000000    -2.717803000000     1.007825032230

  Charge       = 0
  Multiplicity = 1
  Basis Set: AUG-CC-PVTZ
    Blend: AUG-CC-PVTZ
  Basis Set: (AUG-CC-PVTZ AUX)
    Blend: AUG-CC-PVTZ-JKFIT + DEF2-UNIVERSAL-JKFIT

    Orbital Energies [Eh]
    ---------------------

    Doubly Occupied:

       1A    -20.578639     2A    -20.575200     3A    -20.550084
       4A    -20.531027     5A    -20.526853     6A     -1.358862
       7A     -1.337709     8A     -1.335905     9A     -1.305294
      10A     -1.303196    11A     -0.725898    12A     -0.705639
      13A     -0.702060    14A     -0.690336    15A     -0.685877
      16A     -0.593073    17A     -0.577598    18A     -0.563680
      19A     -0.532714    20A     -0.526180    21A     -0.522225
      22A     -0.507385    23A     -0.493930    24A     -0.470286
      25A     -0.468167

  @DF-RHF Final Energy:  -380.28217417116861

   => Energetics <=

    Nuclear Repulsion Energy =            171.8615512194208463
    One-Electron Energy =                -867.9518117525545904
    Two-Electron Energy =                 315.8080863619650813
    Total Energy =                       -380.2821741711686059
 Dipole X            :         49.3620141          -49.9688922           -0.6068781
 Dipole Y            :         -2.3215970           -0.0325260           -2.3541230
 Dipole Z            :         15.6607525          -15.6434930            0.0172595
 Magnitude           :                                                    2.4311507

    SAPT Results
  --------------------------------------------------------------------------------------------------------
    Electrostatics                -80.09437076 [mEh]     -50.25997645 [kcal/mol]    -210.28774146 [kJ/mol]
      Elst10,r                    -81.53392313 [mEh]     -51.16330920 [kcal/mol]    -214.06728569 [kJ/mol]
      Elst12,r                      1.43955237 [mEh]       0.90333275 [kcal/mol]       3.77954423 [kJ/mol]

    Exchange                       39.02797003 [mEh]      24.49042094 [kcal/mol]     102.46792120 [kJ/mol]
      Exch10                       34.40399596 [mEh]      21.58883340 [kcal/mol]      90.32767895 [kJ/mol]
      Exch10(S^2)                  34.32154570 [mEh]      21.53709508 [kcal/mol]      90.11120583 [kJ/mol]
      Exch11(S^2)                  -0.26252634 [mEh]      -0.16473777 [kcal/mol]      -0.68926281 [kJ/mol]
      Exch12(S^2)                   4.88650041 [mEh]       3.06632530 [kcal/mol]      12.82950507 [kJ/mol]

    Induction                     -26.59923818 [mEh]     -16.69127395 [kcal/mol]     -69.83629021 [kJ/mol]
      Ind20,r                     -48.52978745 [mEh]     -30.45290138 [kcal/mol]    -127.41493939 [kJ/mol]
      Ind22                        -9.72668765 [mEh]      -6.10358865 [kcal/mol]     -25.53741492 [kJ/mol]
      Exch-Ind20,r                 27.23665179 [mEh]      17.09125703 [kcal/mol]      71.50981942 [kJ/mol]
      Exch-Ind22                    5.45896487 [mEh]       3.42555217 [kcal/mol]      14.33251028 [kJ/mol]
      delta HF,r (2)               -1.03837973 [mEh]      -0.65159312 [kcal/mol]      -2.72626560 [kJ/mol]

    Dispersion                     -9.69079535 [mEh]      -6.08106589 [kcal/mol]     -25.44317970 [kJ/mol]
      Disp20                      -11.16379126 [mEh]      -7.00538478 [kcal/mol]     -29.31052991 [kJ/mol]
      Disp21                        1.46830530 [mEh]       0.92137548 [kcal/mol]       3.85503503 [kJ/mol]
      Disp22 (SDQ)                 -0.14672573 [mEh]      -0.09207178 [kcal/mol]      -0.38522834 [kJ/mol]
      Disp22 (T)                   -1.20083904 [mEh]      -0.75353788 [kcal/mol]      -3.15280247 [kJ/mol]
      Est. Disp22 (T)              -1.29658057 [mEh]      -0.81361659 [kcal/mol]      -3.40417182 [kJ/mol]
      Exch-Disp20                   1.44799690 [mEh]       0.90863178 [kcal/mol]       3.80171535 [kJ/mol]

  Total HF                        -69.46144256 [mEh]     -43.58771327 [kcal/mol]    -182.37099232 [kJ/mol]
  Total SAPT0                     -79.17723691 [mEh]     -49.68446627 [kcal/mol]    -207.87980687 [kJ/mol]
  Total SAPT2                     -77.38143326 [mEh]     -48.55758246 [kcal/mol]    -203.16492503 [kJ/mol]
  Total SAPT2+                    -77.35643426 [mEh]     -48.54189536 [kcal/mol]    -203.09929017 [kJ/mol]

  Special recipe for scaled SAPT0 (see Manual):
    Electrostatics sSAPT0         -81.53392313 [mEh]     -51.16330920 [kcal/mol]    -214.06728569 [kJ/mol]
    Exchange sSAPT0                34.40399596 [mEh]      21.58883340 [kcal/mol]      90.32767895 [kJ/mol]
    Induction sSAPT0              -22.13475257 [mEh]     -13.88976694 [kcal/mol]     -58.11478488 [kJ/mol]
    Dispersion sSAPT0              -9.70533374 [mEh]      -6.09018887 [kcal/mol]     -25.48135023 [kJ/mol]
  Total sSAPT0                    -78.97001349 [mEh]     -49.55443161 [kcal/mol]    -207.33574185 [kJ/mol]
  --------------------------------------------------------------------------------------------------------

*** Psi4 exiting successfully. Buy a developer a beer!
