                               Psi4 1.9 release

  ==> Input File <==

--------------------------------------------------------------------------
MEMORY 60 GB

molecule dimer {
1 1
K      0.000000     0.000000     0.000000
--
0 1
O      0.293827     2.618771    -0.398133
H     -0.603386     2.977651    -0.383603
H      0.504951     2.523150    -1.349400
O      2.290662    -1.154012     1.170513
H      2.200413    -1.828377     1.847435
H      2.800025    -0.449315     1.581926
O     -0.679679    -1.715755     2.067459
H      0.176766    -2.136211     2.260417
H     -1.317277    -2.272083     1.599994
O     -2.767030     0.221449     0.099673
H     -3.057655     0.587440     0.925810
H     -3.142942    -0.646895     0.189675

units ang
no_reorient
no_com
symmetry c1
}

set {
basis        aug-cc-pVTZ
scf_type     df
}

energy("sapt2+")
--------------------------------------------------------------------------

  //              Dimer HF             //
    Molecular point group: c1
  Charge       = 1
  Multiplicity = 1
  Basis Set: AUG-CC-PVTZ
    Blend: AUG-CC-PVTZ
  Basis Set: (AUG-CC-PVTZ AUX)
    Blend: AUG-CC-PVTZ-JKFIT + DEF2-UNIVERSAL-JKFIT
  @DF-RHF Final Energy:  -903.31222979480128
    Total Energy =                       -903.3122297948012829
 Dipole X            :         17.1180617          -17.6441177           -0.5260560
 Dipole Y            :          2.0812535           -2.7987146           -0.7174611
 Dipole Z            :        -56.2818798           57.0477137            0.7658339
 Magnitude           :                                                    1.1738769
  //            Monomer A HF           //
    Molecular point group: c1
  Multiplicity = 1
  Basis Set: AUG-CC-PVTZ
    Blend: AUG-CC-PVTZ
  Basis Set: (AUG-CC-PVTZ AUX)
    Blend: AUG-CC-PVTZ-JKFIT + DEF2-UNIVERSAL-JKFIT
  @DF-RHF Final Energy:  -599.01751387776005
    Total Energy =                       -599.0175138777601660
  //            Monomer B HF           //
    Molecular point group: c1

    Geometry (in Angstrom), charge = 0, multiplicity = 1:

       Center              X                  Y                   Z               Mass
    ------------   -----------------  -----------------  -----------------  -----------------
      Gh(K)           0.000000000000     0.000000000000     0.000000000000    38.963706486400
         O            0.293827000000     2.618771000000    -0.398133000000    15.994914619570
         H           -0.603386000000     2.977651000000    -0.383603000000     1.007825032230
         H            0.504951000000     2.523150000000    -1.349400000000     1.007825032230
         O            2.290662000000    -1.154012000000     1.170513000000    15.994914619570
         H            2.200413000000    -1.828377000000     1.847435000000     1.007825032230
         H            2.800025000000    -0.449315000000     1.581926000000     1.007825032230
         O           -0.679679000000    -1.715755000000     2.067459000000    15.994914619570
         H            0.176766000000    -2.136211000000     2.260417000000     1.007825032230
         H           -1.317277000000    -2.272083000000     1.599994000000     1.007825032230
         O           -2.767030000000     0.221449000000     0.099673000000    15.994914619570
         H           -3.057655000000     0.587440000000     0.925810000000     1.007825032230
         H           -3.142942000000    -0.646895000000     0.189675000000     1.007825032230

  Charge       = 0
  Multiplicity = 1
  Basis Set: AUG-CC-PVTZ
    Blend: AUG-CC-PVTZ
  Basis Set: (AUG-CC-PVTZ AUX)
    Blend: AUG-CC-PVTZ-JKFIT + DEF2-UNIVERSAL-JKFIT

    Orbital Energies [Eh]
    ---------------------

    Doubly Occupied:

       1A    -20.562785     2A    -20.558382     3A    -20.555846
       4A    -20.549924     5A     -1.352359     6A     -1.347478
       7A     -1.331584     8A     -1.325833     9A     -0.728214
      10A     -0.709243    11A     -0.700351    12A     -0.689825
      13A     -0.588661    14A     -0.577619    15A     -0.562342
      16A     -0.553483    17A     -0.509759    18A     -0.502550
      19A     -0.491980    20A     -0.488857

  @DF-RHF Final Energy:  -304.22721084503797

   => Energetics <=

    Nuclear Repulsion Energy =            112.7838918750831283
    One-Electron Energy =                -644.6480469123588364
    Two-Electron Energy =                 227.6369441922377632
    Total Energy =                       -304.2272108450379733
 Dipole X            :         17.2186367          -17.6441177           -0.4254810
 Dipole Y            :          2.0701914           -2.7987146           -0.7285232
 Dipole Z            :        -56.5767493           57.0477137            0.4709644
 Magnitude           :                                                    0.9662234

    SAPT Results
  --------------------------------------------------------------------------------------------------------
    Electrostatics                -80.45169798 [mEh]     -50.48420267 [kcal/mol]    -211.22590396 [kJ/mol]
      Elst10,r                    -81.48611449 [mEh]     -51.13330882 [kcal/mol]    -213.94176411 [kJ/mol]
      Elst12,r                      1.03441650 [mEh]       0.64910615 [kcal/mol]       2.71586015 [kJ/mol]

    Exchange                       37.27224007 [mEh]      23.38868375 [kcal/mol]      97.85825282 [kJ/mol]
      Exch10                       32.80880004 [mEh]      20.58783285 [kcal/mol]      86.13949265 [kJ/mol]
      Exch10(S^2)                  32.71138063 [mEh]      20.52670124 [kcal/mol]      85.88371801 [kJ/mol]
      Exch11(S^2)                  -0.17026002 [mEh]      -0.10683978 [kcal/mol]      -0.44701763 [kJ/mol]
      Exch12(S^2)                   4.63370005 [mEh]       2.90769068 [kcal/mol]      12.16577781 [kJ/mol]

    Induction                     -22.46599558 [mEh]     -14.09762507 [kcal/mol]     -58.98446328 [kJ/mol]
      Ind20,r                     -45.75297991 [mEh]     -28.71042835 [kcal/mol]    -120.12443221 [kJ/mol]
      Ind22                        -9.24050741 [mEh]      -5.79850594 [kcal/mol]     -24.26094886 [kJ/mol]
      Exch-Ind20,r                 27.73879261 [mEh]      17.40635515 [kcal/mol]      72.82818995 [kJ/mol]
      Exch-Ind22                    5.60226938 [mEh]       3.51547711 [kcal/mol]      14.70875624 [kJ/mol]
      delta HF,r (2)               -0.81357025 [mEh]      -0.51052304 [kcal/mol]      -2.13602841 [kJ/mol]

    Dispersion                     -8.08897706 [mEh]      -5.07590974 [kcal/mol]     -21.23760636 [kJ/mol]
      Disp20                       -9.37105604 [mEh]      -5.88042644 [kcal/mol]     -24.60370424 [kJ/mol]
      Disp21                        1.13975633 [mEh]       0.71520789 [kcal/mol]       2.99242983 [kJ/mol]
      Disp22 (SDQ)                 -0.10965779 [mEh]      -0.06881130 [kcal/mol]      -0.28790648 [kJ/mol]
      Disp22 (T)                   -0.98035274 [mEh]      -0.61518063 [kcal/mol]      -2.57391578 [kJ/mol]
      Est. Disp22 (T)              -1.06500485 [mEh]      -0.66830064 [kcal/mol]      -2.79616986 [kJ/mol]
      Exch-Disp20                   1.31698529 [mEh]       0.82642074 [kcal/mol]       3.45774439 [kJ/mol]

  Total HF                        -67.50507200 [mEh]     -42.36007221 [kcal/mol]    -177.23454213 [kJ/mol]
  Total SAPT0                     -75.55914276 [mEh]     -47.41407791 [kcal/mol]    -198.38050197 [kJ/mol]
  Total SAPT2                     -73.69952425 [mEh]     -46.24714968 [kcal/mol]    -193.49807426 [kJ/mol]
  Total SAPT2+                    -73.73443056 [mEh]     -46.26905372 [kcal/mol]    -193.58972077 [kJ/mol]

  Special recipe for scaled SAPT0 (see Manual):
    Electrostatics sSAPT0         -81.48611449 [mEh]     -51.13330882 [kcal/mol]    -213.94176411 [kJ/mol]
    Exchange sSAPT0                32.80880004 [mEh]      20.58783285 [kcal/mol]      86.13949265 [kJ/mol]
    Induction sSAPT0              -18.57918785 [mEh]     -11.65861639 [kcal/mol]     -48.77965098 [kJ/mol]
    Dispersion sSAPT0              -8.04226913 [mEh]      -5.04660007 [kcal/mol]     -21.11497470 [kJ/mol]
  Total sSAPT0                    -75.29877143 [mEh]     -47.25069244 [kcal/mol]    -197.69689715 [kJ/mol]
  --------------------------------------------------------------------------------------------------------

*** Psi4 exiting successfully. Buy a developer a beer!
