                               Psi4 1.9 release

  ==> Input File <==

--------------------------------------------------------------------------
MEMORY 60 GB

molecule dimer {
1 1
K      0.000000     0.000000     0.000000
--
0 1
O      1.478006     0.717897    -1.948128
H      1.494997     0.601610    -2.908738
H      2.334047     1.201082    -1.842671
O     -2.661762     0.783294    -0.605565
H     -3.465178     1.092006    -0.190818
H     -2.885772     0.543165    -1.519228
O     -0.002906     2.840525    -0.171305
H     -0.856087     3.028844    -0.630236
H      0.477889     3.665808    -0.151625

units ang
no_reorient
no_com
symmetry c1
}

set {
basis        aug-cc-pVTZ
scf_type     df
}

energy("sapt2+")
--------------------------------------------------------------------------

  //              Dimer HF             //
    Molecular point group: c1
  Charge       = 1
  Multiplicity = 1
  Basis Set: AUG-CC-PVTZ
    Blend: AUG-CC-PVTZ
  Basis Set: (AUG-CC-PVTZ AUX)
    Blend: AUG-CC-PVTZ-JKFIT + DEF2-UNIVERSAL-JKFIT
  @DF-RHF Final Energy:  -827.25665298025115
    Total Energy =                       -827.2566529802511468
 Dipole X            :         22.9637174          -23.4201318           -0.4564143
 Dipole Y            :        -83.4442628           84.7849115            1.3406488
 Dipole Z            :         53.4032672          -54.8838828           -1.4806156
 Magnitude           :                                                    2.0488718
  //            Monomer A HF           //
    Molecular point group: c1
  Multiplicity = 1
  Basis Set: AUG-CC-PVTZ
    Blend: AUG-CC-PVTZ
  Basis Set: (AUG-CC-PVTZ AUX)
    Blend: AUG-CC-PVTZ-JKFIT + DEF2-UNIVERSAL-JKFIT
  @DF-RHF Final Energy:  -599.01751298429235
    Total Energy =                       -599.0175129842922388
  //            Monomer B HF           //
    Molecular point group: c1

    Geometry (in Angstrom), charge = 0, multiplicity = 1:

       Center              X                  Y                   Z               Mass
    ------------   -----------------  -----------------  -----------------  -----------------
      Gh(K)           0.000000000000     0.000000000000     0.000000000000    38.963706486400
         O            1.478006000000     0.717897000000    -1.948128000000    15.994914619570
         H            1.494997000000     0.601610000000    -2.908738000000     1.007825032230
         H            2.334047000000     1.201082000000    -1.842671000000     1.007825032230
         O           -2.661762000000     0.783294000000    -0.605565000000    15.994914619570
         H           -3.465178000000     1.092006000000    -0.190818000000     1.007825032230
         H           -2.885772000000     0.543165000000    -1.519228000000     1.007825032230
         O           -0.002906000000     2.840525000000    -0.171305000000    15.994914619570
         H           -0.856087000000     3.028844000000    -0.630236000000     1.007825032230
         H            0.477889000000     3.665808000000    -0.151625000000     1.007825032230

  Charge       = 0
  Multiplicity = 1
  Basis Set: AUG-CC-PVTZ
    Blend: AUG-CC-PVTZ
  Basis Set: (AUG-CC-PVTZ AUX)
    Blend: AUG-CC-PVTZ-JKFIT + DEF2-UNIVERSAL-JKFIT

    Orbital Energies [Eh]
    ---------------------

    Doubly Occupied:

       1A    -20.561068     2A    -20.553779     3A    -20.542018
       4A     -1.342850     5A     -1.327953     6A     -1.319027
       7A     -0.713270     8A     -0.687175     9A     -0.675663
      10A     -0.572906    11A     -0.570787    12A     -0.550387
      13A     -0.503232    14A     -0.495267    15A     -0.476501

  @DF-RHF Final Energy:  -228.16989914190344

   => Energetics <=

    Nuclear Repulsion Energy =             70.1115233210818900
    One-Electron Energy =                -454.7790790069828404
    Two-Electron Energy =                 156.4976565439974934
    Total Energy =                       -228.1698991419034428
 Dipole X            :         23.0208745          -23.4201318           -0.3992572
 Dipole Y            :        -83.9048779           84.7849115            0.8800337
 Dipole Z            :         53.7489875          -54.8838828           -1.1348953
 Magnitude           :                                                    1.4905881

    SAPT Results
  --------------------------------------------------------------------------------------------------------
    Electrostatics                -71.87137135 [mEh]     -45.09996641 [kcal/mol]    -188.69825947 [kJ/mol]
      Elst10,r                    -76.10116172 [mEh]     -47.75419995 [kcal/mol]    -199.80357258 [kJ/mol]
      Elst12,r                      4.22979038 [mEh]       2.65423353 [kcal/mol]      11.10531311 [kJ/mol]

    Exchange                       24.82660950 [mEh]      15.57893266 [kcal/mol]      65.18225426 [kJ/mol]
      Exch10                       22.60178312 [mEh]      14.18283303 [kcal/mol]      59.34097340 [kJ/mol]
      Exch10(S^2)                  22.49736085 [mEh]      14.11730707 [kcal/mol]      59.06681278 [kJ/mol]
      Exch11(S^2)                   0.00586172 [mEh]       0.00367828 [kcal/mol]       0.01538993 [kJ/mol]
      Exch12(S^2)                   2.21896466 [mEh]       1.39242135 [kcal/mol]       5.82589092 [kJ/mol]

    Induction                     -17.87597689 [mEh]     -11.21734485 [kcal/mol]     -46.93337087 [kJ/mol]
      Ind20,r                     -30.55015749 [mEh]     -19.17051325 [kcal/mol]     -80.20942745 [kJ/mol]
      Ind22                        -4.45409537 [mEh]      -2.79498704 [kcal/mol]     -11.69422577 [kJ/mol]
      Exch-Ind20,r                 15.90984337 [mEh]       9.98357744 [kcal/mol]      41.77128801 [kJ/mol]
      Exch-Ind22                    2.31959392 [mEh]       1.45556716 [kcal/mol]       6.09009300 [kJ/mol]
      delta HF,r (2)               -1.10116132 [mEh]      -0.69098916 [kcal/mol]      -2.89109866 [kJ/mol]

    Dispersion                     -5.93820631 [mEh]      -3.72628072 [kcal/mol]     -15.59075851 [kJ/mol]
      Disp20                       -6.94687735 [mEh]      -4.35923135 [kcal/mol]     -18.23902396 [kJ/mol]
      Disp21                        1.00420405 [mEh]       0.63014756 [kcal/mol]       2.63653738 [kJ/mol]
      Disp22 (SDQ)                 -0.08353572 [mEh]      -0.05241946 [kcal/mol]      -0.21932301 [kJ/mol]
      Disp22 (T)                   -0.68733710 [mEh]      -0.43131054 [kcal/mol]      -1.80460332 [kJ/mol]
      Est. Disp22 (T)              -0.74925231 [mEh]      -0.47016292 [kcal/mol]      -1.96716166 [kJ/mol]
      Exch-Disp20                   0.83725502 [mEh]       0.52538546 [kcal/mol]       2.19821275 [kJ/mol]

  Total HF                        -69.24085406 [mEh]     -43.44929189 [kcal/mol]    -181.79183728 [kJ/mol]
  Total SAPT0                     -75.35047639 [mEh]     -47.28313779 [kcal/mol]    -197.83264849 [kJ/mol]
  Total SAPT2                     -71.03036107 [mEh]     -44.57222450 [kcal/mol]    -186.49018730 [kJ/mol]
  Total SAPT2+                    -70.85894505 [mEh]     -44.46465932 [kcal/mol]    -186.04013460 [kJ/mol]

  Special recipe for scaled SAPT0 (see Manual):
    Electrostatics sSAPT0         -76.10116172 [mEh]     -47.75419995 [kcal/mol]    -199.80357258 [kJ/mol]
    Exchange sSAPT0                22.60178312 [mEh]      14.18283303 [kcal/mol]      59.34097340 [kJ/mol]
    Induction sSAPT0              -15.51890734 [mEh]      -9.73826138 [kcal/mol]     -40.74488562 [kJ/mol]
    Dispersion sSAPT0              -6.09790969 [mEh]      -3.82649610 [kcal/mol]     -16.01005969 [kJ/mol]
  Total sSAPT0                    -75.11619564 [mEh]     -47.13612440 [kcal/mol]    -197.21754448 [kJ/mol]
  --------------------------------------------------------------------------------------------------------

*** Psi4 exiting successfully. Buy a developer a beer!
