                               Psi4 1.9 release

  ==> Input File <==

--------------------------------------------------------------------------
MEMORY 60 GB

molecule dimer {
1 1
K      0.000000     0.000000     0.000000
--
0 1
O     -2.137032    -0.856625     1.512180
H     -1.868986    -0.256897     2.167979
H     -2.239988    -1.648355     2.041290
O      2.175127     1.925803    -0.413797
H      1.709840     2.569824    -0.952341
H      2.889234     1.626517    -1.020393
O      0.141167     0.967816     2.459987
H     -0.589109     1.582427     2.558548
H      0.912326     1.572431     2.509376
O     -1.688514     1.833831    -0.432819
H     -2.264011     1.940198     0.309424
H     -2.154571     1.891732    -1.244451
O      1.446652    -0.632454    -2.619546
H      2.280514    -0.166052    -2.786880
H      1.538590    -1.544524    -2.934943
O      2.182475    -1.748894     0.845704
H      2.180246    -2.541209     0.250924
H      2.896339    -1.190755     0.512360

units ang
no_reorient
no_com
symmetry c1
}

set {
basis        aug-cc-pVTZ
scf_type     df
}

energy("sapt2+")
--------------------------------------------------------------------------

  //              Dimer HF             //
    Molecular point group: c1
  Charge       = 1
  Multiplicity = 1
  Basis Set: AUG-CC-PVTZ
    Blend: AUG-CC-PVTZ
  Basis Set: (AUG-CC-PVTZ AUX)
    Blend: AUG-CC-PVTZ-JKFIT + DEF2-UNIVERSAL-JKFIT
  @DF-RHF Final Energy: -1055.45649197422244
    Total Energy =                      -1055.4564919742224447
 Dipole X            :        -41.2926605           42.0453178            0.7526573
 Dipole Y            :        -29.0648820           29.7653653            0.7004834
 Dipole Z            :        -23.8465582           23.1010799           -0.7454783
 Magnitude           :                                                    1.2700031
  //            Monomer A HF           //
    Molecular point group: c1
  Multiplicity = 1
  Basis Set: AUG-CC-PVTZ
    Blend: AUG-CC-PVTZ
  Basis Set: (AUG-CC-PVTZ AUX)
    Blend: AUG-CC-PVTZ-JKFIT + DEF2-UNIVERSAL-JKFIT
  @DF-RHF Final Energy:  -599.01751700987188
    Total Energy =                       -599.0175170098718809
  //            Monomer B HF           //
    Molecular point group: c1

    Geometry (in Angstrom), charge = 0, multiplicity = 1:

       Center              X                  Y                   Z               Mass
    ------------   -----------------  -----------------  -----------------  -----------------
      Gh(K)           0.000000000000     0.000000000000     0.000000000000    38.963706486400
         O           -2.137032000000    -0.856625000000     1.512180000000    15.994914619570
         H           -1.868986000000    -0.256897000000     2.167979000000     1.007825032230
         H           -2.239988000000    -1.648355000000     2.041290000000     1.007825032230
         O            2.175127000000     1.925803000000    -0.413797000000    15.994914619570
         H            1.709840000000     2.569824000000    -0.952341000000     1.007825032230
         H            2.889234000000     1.626517000000    -1.020393000000     1.007825032230
         O            0.141167000000     0.967816000000     2.459987000000    15.994914619570
         H           -0.589109000000     1.582427000000     2.558548000000     1.007825032230
         H            0.912326000000     1.572431000000     2.509376000000     1.007825032230
         O           -1.688514000000     1.833831000000    -0.432819000000    15.994914619570
         H           -2.264011000000     1.940198000000     0.309424000000     1.007825032230
         H           -2.154571000000     1.891732000000    -1.244451000000     1.007825032230
         O            1.446652000000    -0.632454000000    -2.619546000000    15.994914619570
         H            2.280514000000    -0.166052000000    -2.786880000000     1.007825032230
         H            1.538590000000    -1.544524000000    -2.934943000000     1.007825032230
         O            2.182475000000    -1.748894000000     0.845704000000    15.994914619570
         H            2.180246000000    -2.541209000000     0.250924000000     1.007825032230
         H            2.896339000000    -1.190755000000     0.512360000000     1.007825032230

  Charge       = 0
  Multiplicity = 1
  Basis Set: AUG-CC-PVTZ
    Blend: AUG-CC-PVTZ
  Basis Set: (AUG-CC-PVTZ AUX)
    Blend: AUG-CC-PVTZ-JKFIT + DEF2-UNIVERSAL-JKFIT

    Orbital Energies [Eh]
    ---------------------

    Doubly Occupied:

       1A    -20.563007     2A    -20.558121     3A    -20.546606
       4A    -20.542086     5A    -20.537873     6A    -20.532124
       7A     -1.340128     8A     -1.335383     9A     -1.334122
      10A     -1.331783    11A     -1.325245    12A     -1.314184
      13A     -0.718616    14A     -0.714390    15A     -0.693156
      16A     -0.692844    17A     -0.678800    18A     -0.674129
      19A     -0.574378    20A     -0.568400    21A     -0.567952
      22A     -0.560339    23A     -0.550330    24A     -0.550038
      25A     -0.504866    26A     -0.495260    27A     -0.486656
      28A     -0.485133    29A     -0.478289    30A     -0.477352

  @DF-RHF Final Energy:  -456.33962931919012

   => Energetics <=

    Nuclear Repulsion Energy =            246.3055364411168000
    One-Electron Energy =               -1121.8271415991343929
    Two-Electron Energy =                 419.1819758388274408
    Total Energy =                       -456.3396293191901236
 Dipole X            :        -41.3784099           42.0453178            0.6669079
 Dipole Y            :        -29.2389481           29.7653653            0.5264173
 Dipole Z            :        -24.0025381           23.1010799           -0.9014582
 Magnitude           :                                                    1.2387527

    SAPT Results
  --------------------------------------------------------------------------------------------------------
    Electrostatics               -114.94672763 [mEh]     -72.13016057 [kcal/mol]    -301.79259181 [kJ/mol]
      Elst10,r                   -118.69423300 [mEh]     -74.48175569 [kcal/mol]    -311.63166581 [kJ/mol]
      Elst12,r                      3.74750537 [mEh]       2.35159512 [kcal/mol]       9.83907400 [kJ/mol]

    Exchange                       50.01688800 [mEh]      31.38607107 [kcal/mol]     131.31932136 [kJ/mol]
      Exch10                       44.92781620 [mEh]      28.19263030 [kcal/mol]     117.95796519 [kJ/mol]
      Exch10(S^2)                  44.74093124 [mEh]      28.07535822 [kcal/mol]     117.46729878 [kJ/mol]
      Exch11(S^2)                  -0.39587433 [mEh]      -0.24841490 [kcal/mol]      -1.03936792 [kJ/mol]
      Exch12(S^2)                   5.48494613 [mEh]       3.44185566 [kcal/mol]      14.40072409 [kJ/mol]

    Induction                     -30.13814800 [mEh]     -18.91197339 [kcal/mol]     -79.12769668 [kJ/mol]
      Ind20,r                     -57.89642763 [mEh]     -36.33055683 [kcal/mol]    -152.00704979 [kJ/mol]
      Ind22                       -10.87120209 [mEh]      -6.82178230 [kcal/mol]     -28.54233715 [kJ/mol]
      Exch-Ind20,r                 33.61712908 [mEh]      21.09506698 [kcal/mol]      88.26176024 [kJ/mol]
      Exch-Ind22                    6.31228245 [mEh]       3.96101704 [kcal/mol]      16.57289528 [kJ/mol]
      delta HF,r (2)               -1.29992982 [mEh]      -0.81571828 [kcal/mol]      -3.41296526 [kJ/mol]

    Dispersion                    -11.56825736 [mEh]      -7.25919109 [kcal/mol]     -30.37245552 [kJ/mol]
      Disp20                      -13.56115022 [mEh]      -8.50975024 [kcal/mol]     -35.60479500 [kJ/mol]
      Disp21                        1.85342923 [mEh]       1.16304440 [kcal/mol]       4.86617778 [kJ/mol]
      Disp22 (SDQ)                 -0.17223360 [mEh]      -0.10807821 [kcal/mol]      -0.45219924 [kJ/mol]
      Disp22 (T)                   -1.44427020 [mEh]      -0.90629323 [kcal/mol]      -3.79193088 [kJ/mol]
      Est. Disp22 (T)              -1.55619099 [mEh]      -0.97652459 [kcal/mol]      -4.08577887 [kJ/mol]
      Exch-Disp20                   1.86788820 [mEh]       1.17211754 [kcal/mol]       4.90413980 [kJ/mol]

  Total HF                        -99.34564516 [mEh]     -62.34033352 [kcal/mol]    -260.83195543 [kJ/mol]
  Total SAPT0                    -111.03890718 [mEh]     -69.67796621 [kcal/mol]    -291.53261063 [kJ/mol]
  Total SAPT2                    -106.76124964 [mEh]     -66.99369558 [kcal/mol]    -280.30162232 [kJ/mol]
  Total SAPT2+                   -106.63624499 [mEh]     -66.91525398 [kcal/mol]    -279.97342265 [kJ/mol]

  Special recipe for scaled SAPT0 (see Manual):
    Electrostatics sSAPT0        -118.69423300 [mEh]     -74.48175569 [kcal/mol]    -311.63166581 [kJ/mol]
    Exchange sSAPT0                44.92781620 [mEh]      28.19263030 [kcal/mol]     117.95796519 [kJ/mol]
    Induction sSAPT0              -25.15620532 [mEh]     -15.78575716 [kcal/mol]     -66.04760797 [kJ/mol]
    Dispersion sSAPT0             -11.66975734 [mEh]      -7.32288329 [kcal/mol]     -30.63894367 [kJ/mol]
  Total sSAPT0                   -110.59237946 [mEh]     -69.39776584 [kcal/mol]    -290.36025226 [kJ/mol]
  --------------------------------------------------------------------------------------------------------

*** Psi4 exiting successfully. Buy a developer a beer!
