                               Psi4 1.9 release

  ==> Input File <==

--------------------------------------------------------------------------
MEMORY 60 GB

molecule dimer {
1 1
K      0.000000     0.000000     0.000000
--
0 1
O     -2.448527    -0.291095    -1.019181
H     -2.813473     0.376710    -0.455549
H     -2.996059    -1.063636    -0.906107
O     -0.359694    -2.647424     0.173385
H     -0.129317    -3.280336    -0.543745
H     -0.768006    -3.148797     0.926610
O      2.782323     0.361715    -0.387797
H      3.104084     1.127188     0.048438
H      3.129044    -0.410494     0.120079
O      1.143816     0.172493     2.326214
H      2.118111     0.190490     2.431222
H      0.790123    -0.238853     3.124352
O     -0.785943     2.820602    -0.803775
H     -1.653070     3.218136    -0.938106
H     -0.338429     3.318736    -0.088312

units ang
no_reorient
no_com
symmetry c1
}

set {
basis        aug-cc-pVTZ
scf_type     df
}

energy("sapt2+")
--------------------------------------------------------------------------

  //              Dimer HF             //
    Molecular point group: c1
  Charge       = 1
  Multiplicity = 1
  Basis Set: AUG-CC-PVTZ
    Blend: AUG-CC-PVTZ
  Basis Set: (AUG-CC-PVTZ AUX)
    Blend: AUG-CC-PVTZ-JKFIT + DEF2-UNIVERSAL-JKFIT
  @DF-RHF Final Energy:  -979.39293078869559
    Total Energy =                       -979.3929307886955939
 Dipole X            :         -5.9842345            5.8558984           -0.1283361
 Dipole Y            :         -7.0324556            6.4618656           -0.5705900
 Dipole Z            :         -9.2761328           11.3943871            2.1182543
 Magnitude           :                                                    2.1975087
  //            Monomer A HF           //
    Molecular point group: c1
  Multiplicity = 1
  Basis Set: AUG-CC-PVTZ
    Blend: AUG-CC-PVTZ
  Basis Set: (AUG-CC-PVTZ AUX)
    Blend: AUG-CC-PVTZ-JKFIT + DEF2-UNIVERSAL-JKFIT
  @DF-RHF Final Energy:  -599.01751594757820
    Total Energy =                       -599.0175159475782038
  //            Monomer B HF           //
    Molecular point group: c1

    Geometry (in Angstrom), charge = 0, multiplicity = 1:

       Center              X                  Y                   Z               Mass
    ------------   -----------------  -----------------  -----------------  -----------------
      Gh(K)           0.000000000000     0.000000000000     0.000000000000    38.963706486400
         O           -2.448527000000    -0.291095000000    -1.019181000000    15.994914619570
         H           -2.813473000000     0.376710000000    -0.455549000000     1.007825032230
         H           -2.996059000000    -1.063636000000    -0.906107000000     1.007825032230
         O           -0.359694000000    -2.647424000000     0.173385000000    15.994914619570
         H           -0.129317000000    -3.280336000000    -0.543745000000     1.007825032230
         H           -0.768006000000    -3.148797000000     0.926610000000     1.007825032230
         O            2.782323000000     0.361715000000    -0.387797000000    15.994914619570
         H            3.104084000000     1.127188000000     0.048438000000     1.007825032230
         H            3.129044000000    -0.410494000000     0.120079000000     1.007825032230
         O            1.143816000000     0.172493000000     2.326214000000    15.994914619570
         H            2.118111000000     0.190490000000     2.431222000000     1.007825032230
         H            0.790123000000    -0.238853000000     3.124352000000     1.007825032230
         O           -0.785943000000     2.820602000000    -0.803775000000    15.994914619570
         H           -1.653070000000     3.218136000000    -0.938106000000     1.007825032230
         H           -0.338429000000     3.318736000000    -0.088312000000     1.007825032230

  Charge       = 0
  Multiplicity = 1
  Basis Set: AUG-CC-PVTZ
    Blend: AUG-CC-PVTZ
  Basis Set: (AUG-CC-PVTZ AUX)
    Blend: AUG-CC-PVTZ-JKFIT + DEF2-UNIVERSAL-JKFIT

    Orbital Energies [Eh]
    ---------------------

    Doubly Occupied:

       1A    -20.558008     2A    -20.552143     3A    -20.547035
       4A    -20.544791     5A    -20.532020     6A     -1.333999
       7A     -1.327685     8A     -1.323234     9A     -1.322330
      10A     -1.316762    11A     -0.703157    12A     -0.696034
      13A     -0.695120    14A     -0.691061    15A     -0.690647
      16A     -0.565439    17A     -0.556814    18A     -0.553545
      19A     -0.550515    20A     -0.546600    21A     -0.498410
      22A     -0.489499    23A     -0.486436    24A     -0.484463
      25A     -0.474028

  @DF-RHF Final Energy:  -380.27937188691459

   => Energetics <=

    Nuclear Repulsion Energy =            168.9919403538629581
    One-Electron Energy =                -862.4630677837977828
    Two-Electron Energy =                 313.1917555430201787
    Total Energy =                       -380.2793718869145891
 Dipole X            :         -6.0052082            5.8558984           -0.1493097
 Dipole Y            :         -6.9431626            6.4618656           -0.4812970
 Dipole Z            :         -9.3949252           11.3943871            1.9994619
 Magnitude           :                                                    2.0619865

    SAPT Results
  --------------------------------------------------------------------------------------------------------
    Electrostatics               -107.48783218 [mEh]     -67.44963301 [kcal/mol]    -282.20926452 [kJ/mol]
      Elst10,r                   -112.11757017 [mEh]     -70.35483746 [kcal/mol]    -294.36463992 [kJ/mol]
      Elst12,r                      4.62973798 [mEh]       2.90520445 [kcal/mol]      12.15537540 [kJ/mol]

    Exchange                       43.24238677 [mEh]      27.13500737 [kcal/mol]     113.53287083 [kJ/mol]
      Exch10                       39.07327271 [mEh]      24.51884880 [kcal/mol]     102.58686336 [kJ/mol]
      Exch10(S^2)                  38.95515008 [mEh]      24.44472573 [kcal/mol]     102.27673244 [kJ/mol]
      Exch11(S^2)                  -0.25933518 [mEh]      -0.16273529 [kcal/mol]      -0.68088443 [kJ/mol]
      Exch12(S^2)                   4.42844925 [mEh]       2.77889386 [kcal/mol]      11.62689190 [kJ/mol]

    Induction                     -26.86981013 [mEh]     -16.86106042 [kcal/mol]     -70.54667678 [kJ/mol]
      Ind20,r                     -50.58370693 [mEh]     -31.74175532 [kcal/mol]    -132.80750425 [kJ/mol]
      Ind22                        -8.89781023 [mEh]      -5.58346022 [kcal/mol]     -23.36119755 [kJ/mol]
      Exch-Ind20,r                 28.57634969 [mEh]      17.93193016 [kcal/mol]      75.02719579 [kJ/mol]
      Exch-Ind22                    5.02665685 [mEh]       3.15427479 [kcal/mol]      13.19748573 [kJ/mol]
      delta HF,r (2)               -0.99129951 [mEh]      -0.62204983 [kcal/mol]      -2.60265651 [kJ/mol]

    Dispersion                    -10.03894693 [mEh]      -6.29953430 [kcal/mol]     -26.35725152 [kJ/mol]
      Disp20                      -11.77916431 [mEh]      -7.39153720 [kcal/mol]     -30.92619164 [kJ/mol]
      Disp21                        1.60317756 [mEh]       1.00600910 [kcal/mol]       4.20914209 [kJ/mol]
      Disp22 (SDQ)                 -0.12301858 [mEh]      -0.07719533 [kcal/mol]      -0.32298525 [kJ/mol]
      Disp22 (T)                   -1.22202614 [mEh]      -0.76683298 [kcal/mol]      -3.20842918 [kJ/mol]
      Est. Disp22 (T)              -1.32450196 [mEh]      -0.83113753 [kcal/mol]      -3.47747942 [kJ/mol]
      Exch-Disp20                   1.58456037 [mEh]       0.99432665 [kcal/mol]       4.16026269 [kJ/mol]

  Total HF                        -96.04295420 [mEh]     -60.26786365 [kcal/mol]    -252.16074152 [kJ/mol]
  Total SAPT0                    -106.23755814 [mEh]     -66.66507420 [kcal/mol]    -278.92667047 [kJ/mol]
  Total SAPT2                    -101.30985948 [mEh]     -63.57289661 [kcal/mol]    -265.98899942 [kJ/mol]
  Total SAPT2+                   -101.15420247 [mEh]     -63.47522036 [kcal/mol]    -265.58032199 [kJ/mol]

  Special recipe for scaled SAPT0 (see Manual):
    Electrostatics sSAPT0        -112.11757017 [mEh]     -70.35483746 [kcal/mol]    -294.36463992 [kJ/mol]
    Exchange sSAPT0                39.07327271 [mEh]      24.51884880 [kcal/mol]     102.58686336 [kJ/mol]
    Induction sSAPT0              -22.73791386 [mEh]     -14.26825636 [kcal/mol]     -59.69838461 [kJ/mol]
    Dispersion sSAPT0             -10.18014573 [mEh]      -6.38813789 [kcal/mol]     -26.72796892 [kJ/mol]
  Total sSAPT0                   -105.96235704 [mEh]     -66.49238291 [kcal/mol]    -278.20413009 [kJ/mol]
  --------------------------------------------------------------------------------------------------------

*** Psi4 exiting successfully. Buy a developer a beer!
