                               Psi4 1.9 release

  ==> Input File <==

--------------------------------------------------------------------------
MEMORY 60 GB

molecule dimer {
1 1
K      0.000000     0.000000     0.000000
--
0 1
O      0.681155     2.280734     1.579374
H      1.434766     2.011871     2.145198
H      0.845222     3.254319     1.420636
O     -1.480588    -0.767019     2.170820
H     -1.496644    -0.560012     3.066086
H     -1.412629    -1.742263     2.240040
O      0.032695    -2.723352     0.280396
H     -0.173080    -3.362364    -0.391988
H     -0.080478    -3.178871     1.104535
O     -1.492386    -0.320905    -2.637511
H     -2.319056    -0.727991    -2.799845
H     -1.445518     0.545652    -3.153064
O      1.881515    -0.602297    -1.732872
H      1.948772     0.342778    -2.034686
H      1.337631    -1.036198    -2.474607

units ang
no_reorient
no_com
symmetry c1
}

set {
basis        aug-cc-pVTZ
scf_type     df
}

energy("sapt2+")
--------------------------------------------------------------------------

  //              Dimer HF             //
    Molecular point group: c1
  Charge       = 1
  Multiplicity = 1
  Basis Set: AUG-CC-PVTZ
    Blend: AUG-CC-PVTZ
  Basis Set: (AUG-CC-PVTZ AUX)
    Blend: AUG-CC-PVTZ-JKFIT + DEF2-UNIVERSAL-JKFIT
  @DF-RHF Final Energy:  -979.38508717896889
    Total Energy =                       -979.3850871789688881
 Dipole X            :          7.8244233           -8.2805645           -0.4561412
 Dipole Y            :         40.3467517          -40.6589524           -0.3122007
 Dipole Z            :          6.6510771           -6.7955288           -0.1444517
 Magnitude           :                                                    0.5713146
  //            Monomer A HF           //
    Molecular point group: c1
  Multiplicity = 1
  Basis Set: AUG-CC-PVTZ
    Blend: AUG-CC-PVTZ
  Basis Set: (AUG-CC-PVTZ AUX)
    Blend: AUG-CC-PVTZ-JKFIT + DEF2-UNIVERSAL-JKFIT
  @DF-RHF Final Energy:  -599.01751565844847
    Total Energy =                       -599.0175156584484739
  //            Monomer B HF           //
    Molecular point group: c1

    Geometry (in Angstrom), charge = 0, multiplicity = 1:

       Center              X                  Y                   Z               Mass
    ------------   -----------------  -----------------  -----------------  -----------------
      Gh(K)           0.000000000000     0.000000000000     0.000000000000    38.963706486400
         O            0.681155000000     2.280734000000     1.579374000000    15.994914619570
         H            1.434766000000     2.011871000000     2.145198000000     1.007825032230
         H            0.845222000000     3.254319000000     1.420636000000     1.007825032230
         O           -1.480588000000    -0.767019000000     2.170820000000    15.994914619570
         H           -1.496644000000    -0.560012000000     3.066086000000     1.007825032230
         H           -1.412629000000    -1.742263000000     2.240040000000     1.007825032230
         O            0.032695000000    -2.723352000000     0.280396000000    15.994914619570
         H           -0.173080000000    -3.362364000000    -0.391988000000     1.007825032230
         H           -0.080478000000    -3.178871000000     1.104535000000     1.007825032230
         O           -1.492386000000    -0.320905000000    -2.637511000000    15.994914619570
         H           -2.319056000000    -0.727991000000    -2.799845000000     1.007825032230
         H           -1.445518000000     0.545652000000    -3.153064000000     1.007825032230
         O            1.881515000000    -0.602297000000    -1.732872000000    15.994914619570
         H            1.948772000000     0.342778000000    -2.034686000000     1.007825032230
         H            1.337631000000    -1.036198000000    -2.474607000000     1.007825032230

  Charge       = 0
  Multiplicity = 1
  Basis Set: AUG-CC-PVTZ
    Blend: AUG-CC-PVTZ
  Basis Set: (AUG-CC-PVTZ AUX)
    Blend: AUG-CC-PVTZ-JKFIT + DEF2-UNIVERSAL-JKFIT

    Orbital Energies [Eh]
    ---------------------

    Doubly Occupied:

       1A    -20.559028     2A    -20.554020     3A    -20.546200
       4A    -20.541262     5A    -20.539695     6A     -1.339341
       7A     -1.335657     8A     -1.334931     9A     -1.318501
      10A     -1.294900    11A     -0.710014    12A     -0.708411
      13A     -0.682060    14A     -0.678709    15A     -0.653120
      16A     -0.569334    17A     -0.564690    18A     -0.561760
      19A     -0.559044    20A     -0.541596    21A     -0.499145
      22A     -0.491446    23A     -0.488275    24A     -0.483978
      25A     -0.470001

  @DF-RHF Final Energy:  -380.27146854834859

   => Energetics <=

    Nuclear Repulsion Energy =            168.6593908975706029
    One-Electron Energy =                -861.8114776199477092
    Two-Electron Energy =                 312.8806181740285410
    Total Energy =                       -380.2714685483485937
 Dipole X            :          7.8299312           -8.2805645           -0.4506333
 Dipole Y            :         40.5675670          -40.6589524           -0.0913853
 Dipole Z            :          6.6586206           -6.7955288           -0.1369083
 Magnitude           :                                                    0.4797557

    SAPT Results
  --------------------------------------------------------------------------------------------------------
    Electrostatics               -103.86739318 [mEh]     -65.17777324 [kcal/mol]    -272.70380322 [kJ/mol]
      Elst10,r                   -108.02306513 [mEh]     -67.78549675 [kcal/mol]    -283.61451842 [kJ/mol]
      Elst12,r                      4.15567195 [mEh]       2.60772352 [kcal/mol]      10.91071520 [kJ/mol]

    Exchange                       38.12254050 [mEh]      23.92225533 [kcal/mol]     100.09071629 [kJ/mol]
      Exch10                       33.94772667 [mEh]      21.30252010 [kcal/mol]      89.12974409 [kJ/mol]
      Exch10(S^2)                  33.84375264 [mEh]      21.23727541 [kcal/mol]      88.85676031 [kJ/mol]
      Exch11(S^2)                  -0.22441711 [mEh]      -0.14082386 [kcal/mol]      -0.58920704 [kJ/mol]
      Exch12(S^2)                   4.39923094 [mEh]       2.76055909 [kcal/mol]      11.55017925 [kJ/mol]

    Induction                     -25.98251432 [mEh]     -16.30427389 [kcal/mol]     -68.21708196 [kJ/mol]
      Ind20,r                     -47.13450536 [mEh]     -29.57734865 [kcal/mol]    -123.75162676 [kJ/mol]
      Ind22                        -8.85670846 [mEh]      -5.55766846 [kcal/mol]     -23.25328485 [kJ/mol]
      Exch-Ind20,r                 26.08703130 [mEh]      16.36985928 [kcal/mol]      68.49149124 [kJ/mol]
      Exch-Ind22                    4.90182784 [mEh]       3.07594341 [kcal/mol]      12.86974723 [kJ/mol]
      delta HF,r (2)               -0.98015966 [mEh]      -0.61505947 [kcal/mol]      -2.57340882 [kJ/mol]

    Dispersion                     -9.27339124 [mEh]      -5.81914085 [kcal/mol]     -24.34728533 [kJ/mol]
      Disp20                      -10.77730571 [mEh]      -6.76286143 [kcal/mol]     -28.29581223 [kJ/mol]
      Disp21                        1.47745527 [mEh]       0.92711718 [kcal/mol]       3.87905829 [kJ/mol]
      Disp22 (SDQ)                 -0.13814350 [mEh]      -0.08668635 [kcal/mol]      -0.36269571 [kJ/mol]
      Disp22 (T)                   -1.13252899 [mEh]      -0.71067267 [kcal/mol]      -2.97345447 [kJ/mol]
      Est. Disp22 (T)              -1.22444595 [mEh]      -0.76835143 [kcal/mol]      -3.21478239 [kJ/mol]
      Exch-Disp20                   1.38904864 [mEh]       0.87164118 [kcal/mol]       3.64694670 [kJ/mol]

  Total HF                        -96.10297217 [mEh]     -60.30552550 [kcal/mol]    -252.31831868 [kJ/mol]
  Total SAPT0                    -105.49122924 [mEh]     -66.19674575 [kcal/mol]    -276.96718420 [kJ/mol]
  Total SAPT2                    -101.11562407 [mEh]     -63.45101205 [kcal/mol]    -265.47903442 [kJ/mol]
  Total SAPT2+                   -101.00075824 [mEh]     -63.37893265 [kcal/mol]    -265.17745423 [kJ/mol]

  Special recipe for scaled SAPT0 (see Manual):
    Electrostatics sSAPT0        -108.02306513 [mEh]     -67.78549675 [kcal/mol]    -283.61451842 [kJ/mol]
    Exchange sSAPT0                33.94772667 [mEh]      21.30252010 [kcal/mol]      89.12974409 [kJ/mol]
    Induction sSAPT0              -21.78646230 [mEh]     -13.67121149 [kcal/mol]     -57.20034889 [kJ/mol]
    Dispersion sSAPT0              -9.37541548 [mEh]      -5.88316203 [kcal/mol]     -24.61514995 [kJ/mol]
  Total sSAPT0                   -105.23721624 [mEh]     -66.03735019 [kcal/mol]    -276.30027318 [kJ/mol]
  --------------------------------------------------------------------------------------------------------

*** Psi4 exiting successfully. Buy a developer a beer!
