                               Psi4 1.9 release

  ==> Input File <==

--------------------------------------------------------------------------
MEMORY 60 GB

molecule dimer {
1 1
K      0.000000     0.000000     0.000000
--
0 1
O     -0.783516    -1.726652    -2.324142
H     -0.445420    -2.452607    -2.906614
H     -1.685040    -1.971929    -2.112103
O     -1.927039     1.937313     0.043663
H     -2.389142     2.022854    -0.811322
H     -2.517278     1.567321     0.684851
O     -2.525078    -0.395205     1.459688
H     -3.459078    -0.500987     1.132919
H     -2.571024    -0.259444     2.424365
O      0.460553     2.520123    -1.287438
H      0.400227     3.147385    -0.553485
H     -0.048493     2.950684    -2.000751
O      2.234484    -1.510392    -1.101739
H      2.294983    -2.389683    -1.472288
H      3.130234    -1.125978    -1.166978
O      0.616844     0.643018     2.586690
H      1.504879     1.005239     2.404662
H      0.025962     1.431530     2.685422
O     -0.281188    -2.832605     0.143332
H      0.444960    -3.141684    -0.384431
H     -1.165527    -3.190720    -0.205701

units ang
no_reorient
no_com
symmetry c1
}

set {
basis        aug-cc-pVTZ
scf_type     df
}

energy("sapt2+")
--------------------------------------------------------------------------

  //              Dimer HF             //
    Molecular point group: c1
  Charge       = 1
  Multiplicity = 1
  Basis Set: AUG-CC-PVTZ
    Blend: AUG-CC-PVTZ
  Basis Set: (AUG-CC-PVTZ AUX)
    Blend: AUG-CC-PVTZ-JKFIT + DEF2-UNIVERSAL-JKFIT
  @DF-RHF Final Energy: -1131.50694550957883
    Total Energy =                      -1131.5069455095785997
 Dipole X            :         44.1384306          -45.5788279           -1.4403973
 Dipole Y            :         25.8966689          -26.1220981           -0.2254292
 Dipole Z            :         10.7631440          -11.5670552           -0.8039112
 Magnitude           :                                                    1.6648831
  //            Monomer A HF           //
    Molecular point group: c1
  Multiplicity = 1
  Basis Set: AUG-CC-PVTZ
    Blend: AUG-CC-PVTZ
  Basis Set: (AUG-CC-PVTZ AUX)
    Blend: AUG-CC-PVTZ-JKFIT + DEF2-UNIVERSAL-JKFIT
  @DF-RHF Final Energy:  -599.01751743715738
    Total Energy =                       -599.0175174371573803
  //            Monomer B HF           //
    Molecular point group: c1

    Geometry (in Angstrom), charge = 0, multiplicity = 1:

       Center              X                  Y                   Z               Mass
    ------------   -----------------  -----------------  -----------------  -----------------
      Gh(K)           0.000000000000     0.000000000000     0.000000000000    38.963706486400
         O           -0.783516000000    -1.726652000000    -2.324142000000    15.994914619570
         H           -0.445420000000    -2.452607000000    -2.906614000000     1.007825032230
         H           -1.685040000000    -1.971929000000    -2.112103000000     1.007825032230
         O           -1.927039000000     1.937313000000     0.043663000000    15.994914619570
         H           -2.389142000000     2.022854000000    -0.811322000000     1.007825032230
         H           -2.517278000000     1.567321000000     0.684851000000     1.007825032230
         O           -2.525078000000    -0.395205000000     1.459688000000    15.994914619570
         H           -3.459078000000    -0.500987000000     1.132919000000     1.007825032230
         H           -2.571024000000    -0.259444000000     2.424365000000     1.007825032230
         O            0.460553000000     2.520123000000    -1.287438000000    15.994914619570
         H            0.400227000000     3.147385000000    -0.553485000000     1.007825032230
         H           -0.048493000000     2.950684000000    -2.000751000000     1.007825032230
         O            2.234484000000    -1.510392000000    -1.101739000000    15.994914619570
         H            2.294983000000    -2.389683000000    -1.472288000000     1.007825032230
         H            3.130234000000    -1.125978000000    -1.166978000000     1.007825032230
         O            0.616844000000     0.643018000000     2.586690000000    15.994914619570
         H            1.504879000000     1.005239000000     2.404662000000     1.007825032230
         H            0.025962000000     1.431530000000     2.685422000000     1.007825032230
         O           -0.281188000000    -2.832605000000     0.143332000000    15.994914619570
         H            0.444960000000    -3.141684000000    -0.384431000000     1.007825032230
         H           -1.165527000000    -3.190720000000    -0.205701000000     1.007825032230

  Charge       = 0
  Multiplicity = 1
  Basis Set: AUG-CC-PVTZ
    Blend: AUG-CC-PVTZ
  Basis Set: (AUG-CC-PVTZ AUX)
    Blend: AUG-CC-PVTZ-JKFIT + DEF2-UNIVERSAL-JKFIT

    Orbital Energies [Eh]
    ---------------------

    Doubly Occupied:

       1A    -20.563434     2A    -20.546930     3A    -20.544624
       4A    -20.536994     5A    -20.530518     6A    -20.526851
       7A    -20.522595     8A     -1.334229     9A     -1.325964
      10A     -1.323811    11A     -1.313564    12A     -1.306429
      13A     -1.305695    14A     -1.292358    15A     -0.702334
      16A     -0.698695    17A     -0.692626    18A     -0.688867
      19A     -0.671575    20A     -0.670572    21A     -0.669215
      22A     -0.565513    23A     -0.558877    24A     -0.550329
      25A     -0.547434    26A     -0.543507    27A     -0.542284
      28A     -0.525991    29A     -0.502788    30A     -0.494038
      31A     -0.484579    32A     -0.472804    33A     -0.469378
      34A     -0.463057    35A     -0.447504

  @DF-RHF Final Energy:  -532.36744401157159

   => Energetics <=

    Nuclear Repulsion Energy =            332.8354425843276090
    One-Electron Energy =               -1400.5338309490007305
    Two-Electron Energy =                 535.3309443531014722
    Total Energy =                       -532.3674440115715925
 Dipole X            :         44.3497063          -45.5788279           -1.2291215
 Dipole Y            :         25.9717700          -26.1220981           -0.1503281
 Dipole Z            :         10.8034766          -11.5670552           -0.7635785
 Magnitude           :                                                    1.4547819

    SAPT Results
  --------------------------------------------------------------------------------------------------------
    Electrostatics               -122.43478818 [mEh]     -76.82898950 [kcal/mol]    -321.45249208 [kJ/mol]
      Elst10,r                   -128.93239769 [mEh]     -80.90630103 [kcal/mol]    -338.51196351 [kJ/mol]
      Elst12,r                      6.49760952 [mEh]       4.07731153 [kcal/mol]      17.05947144 [kJ/mol]

    Exchange                       37.57736815 [mEh]      23.58015451 [kcal/mol]      98.65936648 [kJ/mol]
      Exch10                       33.27349373 [mEh]      20.87943254 [kcal/mol]      87.35954575 [kJ/mol]
      Exch10(S^2)                  33.21707571 [mEh]      20.84402970 [kcal/mol]      87.21142027 [kJ/mol]
      Exch11(S^2)                  -0.36542834 [mEh]      -0.22930974 [kcal/mol]      -0.95943197 [kJ/mol]
      Exch12(S^2)                   4.66930276 [mEh]       2.93003172 [kcal/mol]      12.25925270 [kJ/mol]

    Induction                     -31.17050396 [mEh]     -19.55978654 [kcal/mol]     -81.83814687 [kJ/mol]
      Ind20,r                     -49.25845331 [mEh]     -30.91014612 [kcal/mol]    -129.32805136 [kJ/mol]
      Ind22                        -9.49677343 [mEh]      -5.95931530 [kcal/mol]     -24.93377521 [kJ/mol]
      Exch-Ind20,r                 24.12630665 [mEh]      15.13948599 [kcal/mol]      63.34360937 [kJ/mol]
      Exch-Ind22                    4.65142635 [mEh]       2.91881410 [kcal/mol]      12.21231821 [kJ/mol]
      delta HF,r (2)               -1.19301022 [mEh]      -0.74862521 [kcal/mol]      -3.13224789 [kJ/mol]

    Dispersion                    -11.20063556 [mEh]      -7.02850492 [kcal/mol]     -29.40726460 [kJ/mol]
      Disp20                      -12.86358003 [mEh]      -8.07201833 [kcal/mol]     -33.77332471 [kJ/mol]
      Disp21                        1.91785914 [mEh]       1.20347478 [kcal/mol]       5.03533847 [kJ/mol]
      Disp22 (SDQ)                 -0.20765253 [mEh]      -0.13030393 [kcal/mol]      -0.54519165 [kJ/mol]
      Disp22 (T)                   -1.41720528 [mEh]      -0.88930974 [kcal/mol]      -3.72087196 [kJ/mol]
      Est. Disp22 (T)              -1.51451669 [mEh]      -0.95037357 [kcal/mol]      -3.97636303 [kJ/mol]
      Exch-Disp20                   1.46725457 [mEh]       0.92071614 [kcal/mol]       3.85227633 [kJ/mol]

  Total HF                       -121.98406085 [mEh]     -76.54615383 [kcal/mol]    -320.26910764 [kJ/mol]
  Total SAPT0                    -133.38038631 [mEh]     -83.69745603 [kcal/mol]    -350.19015602 [kJ/mol]
  Total SAPT2                    -127.42424945 [mEh]     -79.95992372 [kcal/mol]    -334.55232085 [kJ/mol]
  Total SAPT2+                   -127.22855955 [mEh]     -79.83712645 [kcal/mol]    -334.03853707 [kJ/mol]

  Special recipe for scaled SAPT0 (see Manual):
    Electrostatics sSAPT0        -128.93239769 [mEh]     -80.90630103 [kcal/mol]    -338.51196351 [kJ/mol]
    Exchange sSAPT0                33.27349373 [mEh]      20.87943254 [kcal/mol]      87.35954575 [kJ/mol]
    Induction sSAPT0              -26.20201496 [mEh]     -16.44201262 [kcal/mol]     -68.79338079 [kJ/mol]
    Dispersion sSAPT0             -11.38883652 [mEh]      -7.14660281 [kcal/mol]     -29.90138616 [kJ/mol]
  Total sSAPT0                   -133.24975544 [mEh]     -83.61548392 [kcal/mol]    -349.84718471 [kJ/mol]
  --------------------------------------------------------------------------------------------------------

*** Psi4 exiting successfully. Buy a developer a beer!
