                               Psi4 1.9 release

  ==> Input File <==

--------------------------------------------------------------------------
MEMORY 60 GB

molecule dimer {
1 1
K      0.000000     0.000000     0.000000
--
0 1
O     -0.884192     1.970622     1.647785
H     -1.347598     2.832663     1.776305
H     -0.910421     1.461029     2.511078
O      1.732463    -1.946278     1.003026
H      2.428694    -1.633923     0.375693
H      1.250224    -2.688478     0.576902
O      0.339742    -2.049983    -1.517259
H      1.255807    -1.951855    -1.805876
H     -0.043822    -2.742772    -2.064470
O     -2.568170    -0.255539     0.443239
H     -3.487635    -0.547337     0.522851
H     -2.411796     0.586593     0.985116
O     -1.514408     0.603461    -2.260019
H     -1.635852     0.242743    -3.138612
H     -1.484450     1.566521    -2.316759
O     -0.662160    -1.145485     2.641416
H      0.095372    -1.722406     2.715579
H     -1.429032    -1.705154     2.649019
O      2.172705     1.960527     0.162383
H      3.008128     2.179055    -0.195332
H      1.946524     2.806233     0.714730

units ang
no_reorient
no_com
symmetry c1
}

set {
basis        aug-cc-pVTZ
scf_type     df
}

energy("sapt2+")
--------------------------------------------------------------------------

  //              Dimer HF             //
    Molecular point group: c1
  Charge       = 1
  Multiplicity = 1
  Basis Set: AUG-CC-PVTZ
    Blend: AUG-CC-PVTZ
  Basis Set: (AUG-CC-PVTZ AUX)
    Blend: AUG-CC-PVTZ-JKFIT + DEF2-UNIVERSAL-JKFIT
  @DF-RHF Final Energy: -1131.51577021267076
    Total Energy =                      -1131.5157702126707591
 Dipole X            :         26.0272320          -26.1500622           -0.1228303
 Dipole Y            :         15.7157487          -15.5306915            0.1850572
 Dipole Z            :        -38.9170287           38.3062452           -0.6107835
 Magnitude           :                                                    0.6499153
  //            Monomer A HF           //
    Molecular point group: c1
  Multiplicity = 1
  Basis Set: AUG-CC-PVTZ
    Blend: AUG-CC-PVTZ
  Basis Set: (AUG-CC-PVTZ AUX)
    Blend: AUG-CC-PVTZ-JKFIT + DEF2-UNIVERSAL-JKFIT
  @DF-RHF Final Energy:  -599.01751785050146
    Total Energy =                       -599.0175178505014628
  //            Monomer B HF           //
    Molecular point group: c1

    Geometry (in Angstrom), charge = 0, multiplicity = 1:

       Center              X                  Y                   Z               Mass
    ------------   -----------------  -----------------  -----------------  -----------------
      Gh(K)           0.000000000000     0.000000000000     0.000000000000    38.963706486400
         O           -0.884192000000     1.970622000000     1.647785000000    15.994914619570
         H           -1.347598000000     2.832663000000     1.776305000000     1.007825032230
         H           -0.910421000000     1.461029000000     2.511078000000     1.007825032230
         O            1.732463000000    -1.946278000000     1.003026000000    15.994914619570
         H            2.428694000000    -1.633923000000     0.375693000000     1.007825032230
         H            1.250224000000    -2.688478000000     0.576902000000     1.007825032230
         O            0.339742000000    -2.049983000000    -1.517259000000    15.994914619570
         H            1.255807000000    -1.951855000000    -1.805876000000     1.007825032230
         H           -0.043822000000    -2.742772000000    -2.064470000000     1.007825032230
         O           -2.568170000000    -0.255539000000     0.443239000000    15.994914619570
         H           -3.487635000000    -0.547337000000     0.522851000000     1.007825032230
         H           -2.411796000000     0.586593000000     0.985116000000     1.007825032230
         O           -1.514408000000     0.603461000000    -2.260019000000    15.994914619570
         H           -1.635852000000     0.242743000000    -3.138612000000     1.007825032230
         H           -1.484450000000     1.566521000000    -2.316759000000     1.007825032230
         O           -0.662160000000    -1.145485000000     2.641416000000    15.994914619570
         H            0.095372000000    -1.722406000000     2.715579000000     1.007825032230
         H           -1.429032000000    -1.705154000000     2.649019000000     1.007825032230
         O            2.172705000000     1.960527000000     0.162383000000    15.994914619570
         H            3.008128000000     2.179055000000    -0.195332000000     1.007825032230
         H            1.946524000000     2.806233000000     0.714730000000     1.007825032230

  Charge       = 0
  Multiplicity = 1
  Basis Set: AUG-CC-PVTZ
    Blend: AUG-CC-PVTZ
  Basis Set: (AUG-CC-PVTZ AUX)
    Blend: AUG-CC-PVTZ-JKFIT + DEF2-UNIVERSAL-JKFIT

    Orbital Energies [Eh]
    ---------------------

    Doubly Occupied:

       1A    -20.553493     2A    -20.548772     3A    -20.547973
       4A    -20.534886     5A    -20.523366     6A    -20.521530
       7A    -20.510238     8A     -1.332018     9A     -1.319152
      10A     -1.316424    11A     -1.312648    12A     -1.306187
      13A     -1.303391    14A     -1.276036    15A     -0.700417
      16A     -0.687684    17A     -0.685116    18A     -0.682167
      19A     -0.674797    20A     -0.674120    21A     -0.654985
      22A     -0.561245    23A     -0.557565    24A     -0.550418
      25A     -0.546673    26A     -0.539838    27A     -0.532438
      28A     -0.509617    29A     -0.491722    30A     -0.485135
      31A     -0.483848    32A     -0.474810    33A     -0.465889
      34A     -0.463322    35A     -0.442041

  @DF-RHF Final Energy:  -532.38303424003936

   => Energetics <=

    Nuclear Repulsion Energy =            338.5193779674736447
    One-Electron Energy =               -1412.2648870395194081
    Two-Electron Energy =                 541.3624748320063418
    Total Energy =                       -532.3830342400393647
 Dipole X            :         26.2457880          -26.1500622            0.0957257
 Dipole Y            :         15.8169822          -15.5306915            0.2862907
 Dipole Z            :        -39.0133293           38.3062452           -0.7070840
 Magnitude           :                                                    0.7688261

    SAPT Results
  --------------------------------------------------------------------------------------------------------
    Electrostatics               -123.35695710 [mEh]     -77.40765924 [kcal/mol]    -323.87364626 [kJ/mol]
      Elst10,r                   -130.44083905 [mEh]     -81.85286227 [kcal/mol]    -342.47237575 [kJ/mol]
      Elst12,r                      7.08388195 [mEh]       4.44520303 [kcal/mol]      18.59872950 [kJ/mol]

    Exchange                       50.25684014 [mEh]      31.53664331 [kcal/mol]     131.94931560 [kJ/mol]
      Exch10                       45.43943069 [mEh]      28.51367324 [kcal/mol]     119.30120885 [kJ/mol]
      Exch10(S^2)                  45.32053917 [mEh]      28.43906769 [kcal/mol]     118.98905921 [kJ/mol]
      Exch11(S^2)                  -0.53545495 [mEh]      -0.33600306 [kcal/mol]      -1.40583679 [kJ/mol]
      Exch12(S^2)                   5.35286440 [mEh]       3.35897312 [kcal/mol]      14.05394354 [kJ/mol]

    Induction                     -35.33648881 [mEh]     -22.17398150 [kcal/mol]     -92.77593859 [kJ/mol]
      Ind20,r                     -57.87871239 [mEh]     -36.31944035 [kcal/mol]    -151.96053844 [kJ/mol]
      Ind22                       -10.48746934 [mEh]      -6.58098636 [kcal/mol]     -27.53484695 [kJ/mol]
      Exch-Ind20,r                 29.62347009 [mEh]      18.58900813 [kcal/mol]      77.77641001 [kJ/mol]
      Exch-Ind22                    5.36769429 [mEh]       3.36827902 [kcal/mol]      14.09287943 [kJ/mol]
      delta HF,r (2)               -1.96147147 [mEh]      -1.23084193 [kcal/mol]      -5.14984264 [kJ/mol]

    Dispersion                    -13.83218713 [mEh]      -8.67982847 [kcal/mol]     -36.31640231 [kJ/mol]
      Disp20                      -16.27588835 [mEh]     -10.21327413 [kcal/mol]     -42.73233897 [kJ/mol]
      Disp21                        2.54064649 [mEh]       1.59427974 [kcal/mol]       6.67046644 [kJ/mol]
      Disp22 (SDQ)                 -0.23282576 [mEh]      -0.14610037 [kcal/mol]      -0.61128394 [kJ/mol]
      Disp22 (T)                   -1.75228205 [mEh]      -1.09957359 [kcal/mol]      -4.60061589 [kJ/mol]
      Est. Disp22 (T)              -1.87989275 [mEh]      -1.17965051 [kcal/mol]      -4.93565774 [kJ/mol]
      Exch-Disp20                   2.01577324 [mEh]       1.26491680 [kcal/mol]       5.29241191 [kJ/mol]

  Total HF                       -115.21812213 [mEh]     -72.30046319 [kcal/mol]    -302.50513798 [kJ/mol]
  Total SAPT0                    -129.47823724 [mEh]     -81.24882051 [kcal/mol]    -339.94506503 [kJ/mol]
  Total SAPT2                    -122.69672089 [mEh]     -76.99335476 [kcal/mol]    -322.14019631 [kJ/mol]
  Total SAPT2+                   -122.26879291 [mEh]     -76.72482590 [kcal/mol]    -321.01667156 [kJ/mol]

  Special recipe for scaled SAPT0 (see Manual):
    Electrostatics sSAPT0        -130.44083905 [mEh]     -81.85286227 [kcal/mol]    -342.47237575 [kJ/mol]
    Exchange sSAPT0                45.43943069 [mEh]      28.51367324 [kcal/mol]     119.30120885 [kJ/mol]
    Induction sSAPT0              -29.98296367 [mEh]     -18.81459376 [kcal/mol]     -78.72026028 [kJ/mol]
    Dispersion sSAPT0             -14.24420923 [mEh]      -8.93837624 [kcal/mol]     -37.39816619 [kJ/mol]
  Total sSAPT0                   -129.22858127 [mEh]     -81.09215903 [kcal/mol]    -339.28959338 [kJ/mol]
  --------------------------------------------------------------------------------------------------------

*** Psi4 exiting successfully. Buy a developer a beer!
