                               Psi4 1.8.2 release

  ==> Input File <==

--------------------------------------------------------------------------
MEMORY 60 GB

molecule dimer {
-1 1
F      0.000000     0.000000     0.000000
--
0 1
O     -0.286622    -1.514715     2.435167
H     -0.402152    -1.045189     1.569146
H      0.608407    -1.883599     2.387395
O     -2.461253    -1.232960    -1.069186
H     -1.653607    -1.018445    -0.593070
H     -2.664912    -0.521743    -1.698566
O      2.627690     1.043131    -0.166942
H      2.582567     0.776855    -1.104331
H      1.672597     0.976927     0.122659
O      0.537003    -1.242099    -2.661767
H      0.000214    -0.978346    -3.428741
H      0.354593    -0.727473    -1.893451
O     -1.468053     1.104063     2.129759
H     -0.967829     0.901328     1.361246
H     -2.109567     0.364225     2.248548
O      1.926326    -2.436781     0.093481
H      2.827091    -2.287496     0.347949
H      1.352146    -1.641731     0.155321
O     -0.916969     2.226321    -1.648781
H     -1.489975     1.706670    -2.249404
H     -0.532336     1.455566    -1.146943

units ang
no_reorient
no_com
symmetry c1
}

set {
basis        aug-cc-pVTZ
scf_type     df
}

energy("sapt2+")
--------------------------------------------------------------------------

  //              Dimer HF             //
    Molecular point group: c1
  Charge       = -1
  Multiplicity = 1
  Basis Set: AUG-CC-PVTZ
    Blend: AUG-CC-PVTZ
  Basis Set: (AUG-CC-PVTZ AUX)
    Blend: AUG-CC-PVTZ-JKFIT
  @DF-RHF Final Energy:  -631.98493125224684
    Total Energy =                       -631.9849312522468381
 Dipole X            :          1.3429778           -1.4320099           -0.0890321
 Dipole Y            :         38.6663564          -38.4498247            0.2165317
 Dipole Z            :         19.5818753          -20.8406443           -1.2587690
 Magnitude           :                                                    1.2803562
  //            Monomer A HF           //
    Molecular point group: c1
  Multiplicity = 1
  Basis Set: AUG-CC-PVTZ
    Blend: AUG-CC-PVTZ
  Basis Set: (AUG-CC-PVTZ AUX)
    Blend: AUG-CC-PVTZ-JKFIT
  @DF-RHF Final Energy:   -99.45117842297107
    Total Energy =                        -99.4511784229710827
  //            Monomer B HF           //
    Molecular point group: c1

    Geometry (in Angstrom), charge = 0, multiplicity = 1:

       Center              X                  Y                   Z               Mass
    ------------   -----------------  -----------------  -----------------  -----------------
      Gh(F)           0.000000000000     0.000000000000     0.000000000000    18.998403162730
         O           -0.286622000000    -1.514715000000     2.435167000000    15.994914619570
         H           -0.402152000000    -1.045189000000     1.569146000000     1.007825032230
         H            0.608407000000    -1.883599000000     2.387395000000     1.007825032230
         O           -2.461253000000    -1.232960000000    -1.069186000000    15.994914619570
         H           -1.653607000000    -1.018445000000    -0.593070000000     1.007825032230
         H           -2.664912000000    -0.521743000000    -1.698566000000     1.007825032230
         O            2.627690000000     1.043131000000    -0.166942000000    15.994914619570
         H            2.582567000000     0.776855000000    -1.104331000000     1.007825032230
         H            1.672597000000     0.976927000000     0.122659000000     1.007825032230
         O            0.537003000000    -1.242099000000    -2.661767000000    15.994914619570
         H            0.000214000000    -0.978346000000    -3.428741000000     1.007825032230
         H            0.354593000000    -0.727473000000    -1.893451000000     1.007825032230
         O           -1.468053000000     1.104063000000     2.129759000000    15.994914619570
         H           -0.967829000000     0.901328000000     1.361246000000     1.007825032230
         H           -2.109567000000     0.364225000000     2.248548000000     1.007825032230
         O            1.926326000000    -2.436781000000     0.093481000000    15.994914619570
         H            2.827091000000    -2.287496000000     0.347949000000     1.007825032230
         H            1.352146000000    -1.641731000000     0.155321000000     1.007825032230
         O           -0.916969000000     2.226321000000    -1.648781000000    15.994914619570
         H           -1.489975000000     1.706670000000    -2.249404000000     1.007825032230
         H           -0.532336000000     1.455566000000    -1.146943000000     1.007825032230

  Charge       = 0
  Multiplicity = 1
  Basis Set: AUG-CC-PVTZ
    Blend: AUG-CC-PVTZ
  Basis Set: (AUG-CC-PVTZ AUX)
    Blend: AUG-CC-PVTZ-JKFIT

    Orbital Energies [Eh]
    ---------------------

    Doubly Occupied:

       1A    -20.622337     2A    -20.608644     3A    -20.606874
       4A    -20.599936     5A    -20.593026     6A    -20.587049
       7A    -20.584584     8A     -1.389876     9A     -1.387477
      10A     -1.384272    11A     -1.373313    12A     -1.372564
      13A     -1.367001    14A     -1.361508    15A     -0.773816
      16A     -0.763376    17A     -0.754744    18A     -0.739887
      19A     -0.732623    20A     -0.730515    21A     -0.729033
      22A     -0.639812    23A     -0.615077    24A     -0.613111
      25A     -0.605182    26A     -0.601953    27A     -0.595709
      28A     -0.586538    29A     -0.554779    30A     -0.553244
      31A     -0.541217    32A     -0.539822    33A     -0.538077
      34A     -0.528474    35A     -0.515457

  @DF-RHF Final Energy:  -532.36584505760118

   => Energetics <=

    Nuclear Repulsion Energy =            335.6293774926227798
    One-Electron Energy =               -1401.8086192229939115
    Two-Electron Energy =                 533.8133966727699544
    Total Energy =                       -532.3658450576011774
 Dipole X            :          1.2928877           -1.4320099           -0.1391222
 Dipole Y            :         38.5282524          -38.4498247            0.0784277
 Dipole Z            :         19.4505026          -20.8406443           -1.3901417
 Magnitude           :                                                    1.3992854

    SAPT Results
  --------------------------------------------------------------------------------------------------------
    Electrostatics               -187.66853335 [mEh]    -117.76378260 [kcal/mol]    -492.72366642 [kJ/mol]
      Elst10,r                   -188.30444127 [mEh]    -118.16282085 [kcal/mol]    -494.39324244 [kJ/mol]
      Elst12,r                      0.63590792 [mEh]       0.39903825 [kcal/mol]       1.66957603 [kJ/mol]

    Exchange                       99.61011748 [mEh]      62.50629240 [kcal/mol]     261.52632741 [kJ/mol]
      Exch10                       71.60565384 [mEh]      44.93322616 [kcal/mol]     188.00061827 [kJ/mol]
      Exch10(S^2)                  72.77665357 [mEh]      45.66803958 [kcal/mol]     191.07507762 [kJ/mol]
      Exch11(S^2)                   2.05356804 [mEh]       1.28863340 [kcal/mol]       5.39164216 [kJ/mol]
      Exch12(S^2)                  25.95089559 [mEh]      16.28443283 [kcal/mol]      68.13406698 [kJ/mol]

    Induction                     -62.47338221 [mEh]     -39.20263920 [kcal/mol]    -164.02384240 [kJ/mol]
      Ind20,r                     -66.16131932 [mEh]     -41.51685467 [kcal/mol]    -173.70651994 [kJ/mol]
      Ind22                       -15.83423518 [mEh]      -9.93613258 [kcal/mol]     -41.57277874 [kJ/mol]
      Exch-Ind20,r                 19.09447826 [mEh]      11.98196600 [kcal/mol]      50.13254575 [kJ/mol]
      Exch-Ind22                    4.56983722 [mEh]       2.86761615 [kcal/mol]      11.99810596 [kJ/mol]
      delta HF,r (2)               -4.14214319 [mEh]      -2.59923409 [kcal/mol]     -10.87519544 [kJ/mol]

    Dispersion                    -34.99850783 [mEh]     -21.96189523 [kcal/mol]     -91.88856966 [kJ/mol]
      Disp20                      -32.13911226 [mEh]     -20.16759742 [kcal/mol]     -84.38122762 [kJ/mol]
      Disp21                        0.56747333 [mEh]       0.35609489 [kcal/mol]       1.48990102 [kJ/mol]
      Disp22 (SDQ)                 -4.31770323 [mEh]      -2.70939968 [kcal/mol]     -11.33612826 [kJ/mol]
      Disp22 (T)                   -6.21302050 [mEh]      -3.89872923 [kcal/mol]     -16.31228308 [kJ/mol]
      Est. Disp22 (T)              -7.27200066 [mEh]      -4.56324931 [kcal/mol]     -19.09263511 [kJ/mol]
      Exch-Disp20                   8.16283499 [mEh]       5.12225629 [kcal/mol]      21.43152031 [kJ/mol]

  Total HF                       -167.90777167 [mEh]    -105.36371745 [kcal/mol]    -440.84179380 [kJ/mol]
  Total SAPT0                    -191.88404895 [mEh]    -120.40905858 [kcal/mol]    -503.79150110 [kJ/mol]
  Total SAPT2                    -174.50807535 [mEh]    -109.50547053 [kcal/mol]    -458.17088872 [kJ/mol]
  Total SAPT2+                   -185.53030591 [mEh]    -116.42202463 [kcal/mol]    -487.10975107 [kJ/mol]

  Special recipe for scaled SAPT0 (see Manual):
    Electrostatics sSAPT0        -188.30444127 [mEh]    -118.16282085 [kcal/mol]    -494.39324244 [kJ/mol]
    Exchange sSAPT0                71.60565384 [mEh]      44.93322616 [kcal/mol]     188.00061827 [kJ/mol]
    Induction sSAPT0              -52.11594206 [mEh]     -32.70324738 [kcal/mol]    -136.83038702 [kJ/mol]
    Dispersion sSAPT0             -24.36399915 [mEh]     -15.28864028 [kcal/mol]     -63.96767095 [kJ/mol]
  Total sSAPT0                   -193.17872863 [mEh]    -121.22148235 [kcal/mol]    -507.19068215 [kJ/mol]
  --------------------------------------------------------------------------------------------------------

*** Psi4 exiting successfully. Buy a developer a beer!
