                               Psi4 1.8.2 release

  ==> Input File <==

--------------------------------------------------------------------------
MEMORY 60 GB

molecule dimer {
-1 1
F      0.000000     0.000000     0.000000
--
0 1
O      1.943180    -1.481226    -1.533782
H      1.492731    -0.983818    -0.762784
H      2.895702    -1.591579    -1.366159
O     -0.762415     1.620087    -2.169231
H     -0.422253     1.106304    -1.431278
H     -0.462493     2.531093    -2.014487
O     -2.519270    -0.464213     1.233913
H     -1.590893    -0.214604     1.060676
H     -2.543855    -0.853043     2.077102
O      0.060032     2.294594     1.777243
H      1.059937     2.316459     1.901961
H     -0.003335     1.560682     1.110421
O      0.992398    -1.552165     2.215795
H      0.275212    -1.674051     2.882465
H      0.602353    -1.005947     1.522455
O     -1.286709    -1.923112    -1.483128
H     -0.842732    -1.225214    -0.978564
H     -0.645524    -2.673708    -1.551089

units ang
no_reorient
no_com
symmetry c1
}

set {
basis        aug-cc-pVTZ
scf_type     df
}

energy("sapt2+")
--------------------------------------------------------------------------

  //              Dimer HF             //
    Molecular point group: c1
  Charge       = -1
  Multiplicity = 1
  Basis Set: AUG-CC-PVTZ
    Blend: AUG-CC-PVTZ
  Basis Set: (AUG-CC-PVTZ AUX)
    Blend: AUG-CC-PVTZ-JKFIT
  @DF-RHF Final Energy:  -555.91811526119159
    Total Energy =                       -555.9181152611915877
 Dipole X            :         26.1242044          -24.1269309            1.9972735
 Dipole Y            :         28.2407718          -27.8842431            0.3565287
 Dipole Z            :         -3.7639432            5.2481455            1.4842023
 Magnitude           :                                                    2.5137761
  //            Monomer A HF           //
    Molecular point group: c1
  Multiplicity = 1
  Basis Set: AUG-CC-PVTZ
    Blend: AUG-CC-PVTZ
  Basis Set: (AUG-CC-PVTZ AUX)
    Blend: AUG-CC-PVTZ-JKFIT
  @DF-RHF Final Energy:   -99.45115298579128
    Total Energy =                        -99.4511529857912819
  //            Monomer B HF           //
    Molecular point group: c1

    Geometry (in Angstrom), charge = 0, multiplicity = 1:

       Center              X                  Y                   Z               Mass
    ------------   -----------------  -----------------  -----------------  -----------------
      Gh(F)           0.000000000000     0.000000000000     0.000000000000    18.998403162730
         O            1.943180000000    -1.481226000000    -1.533782000000    15.994914619570
         H            1.492731000000    -0.983818000000    -0.762784000000     1.007825032230
         H            2.895702000000    -1.591579000000    -1.366159000000     1.007825032230
         O           -0.762415000000     1.620087000000    -2.169231000000    15.994914619570
         H           -0.422253000000     1.106304000000    -1.431278000000     1.007825032230
         H           -0.462493000000     2.531093000000    -2.014487000000     1.007825032230
         O           -2.519270000000    -0.464213000000     1.233913000000    15.994914619570
         H           -1.590893000000    -0.214604000000     1.060676000000     1.007825032230
         H           -2.543855000000    -0.853043000000     2.077102000000     1.007825032230
         O            0.060032000000     2.294594000000     1.777243000000    15.994914619570
         H            1.059937000000     2.316459000000     1.901961000000     1.007825032230
         H           -0.003335000000     1.560682000000     1.110421000000     1.007825032230
         O            0.992398000000    -1.552165000000     2.215795000000    15.994914619570
         H            0.275212000000    -1.674051000000     2.882465000000     1.007825032230
         H            0.602353000000    -1.005947000000     1.522455000000     1.007825032230
         O           -1.286709000000    -1.923112000000    -1.483128000000    15.994914619570
         H           -0.842732000000    -1.225214000000    -0.978564000000     1.007825032230
         H           -0.645524000000    -2.673708000000    -1.551089000000     1.007825032230

  Charge       = 0
  Multiplicity = 1
  Basis Set: AUG-CC-PVTZ
    Blend: AUG-CC-PVTZ
  Basis Set: (AUG-CC-PVTZ AUX)
    Blend: AUG-CC-PVTZ-JKFIT

    Orbital Energies [Eh]
    ---------------------

    Doubly Occupied:

       1A    -20.611184     2A    -20.609000     3A    -20.597580
       4A    -20.584853     5A    -20.579280     6A    -20.566844
       7A     -1.382884     8A     -1.374132     9A     -1.369341
      10A     -1.358589    11A     -1.356713    12A     -1.337932
      13A     -0.752187    14A     -0.745529    15A     -0.735306
      16A     -0.726534    17A     -0.718287    18A     -0.705598
      19A     -0.621215    20A     -0.617504    21A     -0.596146
      22A     -0.591482    23A     -0.589438    24A     -0.571479
      25A     -0.547851    26A     -0.540699    27A     -0.530962
      28A     -0.529333    29A     -0.518584    30A     -0.502193

  @DF-RHF Final Energy:  -456.31621486941827

   => Energetics <=

    Nuclear Repulsion Energy =            247.9451196953969827
    One-Electron Energy =               -1122.7853420442422703
    Two-Electron Energy =                 418.5240074794269844
    Total Energy =                       -456.3162148694182747
 Dipole X            :         25.9943176          -24.1269309            1.8673867
 Dipole Y            :         28.0298186          -27.8842431            0.1455755
 Dipole Z            :         -3.7190951            5.2481455            1.5290504
 Magnitude           :                                                    2.4179165

    SAPT Results
  --------------------------------------------------------------------------------------------------------
    Electrostatics               -176.06016116 [mEh]    -110.47941908 [kcal/mol]    -462.24588944 [kJ/mol]
      Elst10,r                   -175.22667622 [mEh]    -109.95639939 [kcal/mol]    -460.05757505 [kJ/mol]
      Elst12,r                     -0.83348494 [mEh]      -0.52301969 [kcal/mol]      -2.18831440 [kJ/mol]

    Exchange                      106.42702259 [mEh]      66.78396494 [kcal/mol]     279.42410931 [kJ/mol]
      Exch10                       78.54829572 [mEh]      49.28979971 [kcal/mol]     206.22852200 [kJ/mol]
      Exch10(S^2)                  79.70751796 [mEh]      50.01722265 [kcal/mol]     209.27205958 [kJ/mol]
      Exch11(S^2)                   1.87511252 [mEh]       1.17665087 [kcal/mol]       4.92310724 [kJ/mol]
      Exch12(S^2)                  26.00361435 [mEh]      16.31751436 [kcal/mol]      68.27248008 [kJ/mol]

    Induction                     -65.04307522 [mEh]     -40.81514591 [kcal/mol]    -170.77057047 [kJ/mol]
      Ind20,r                     -68.93527143 [mEh]     -43.25753590 [kcal/mol]    -180.98953021 [kJ/mol]
      Ind22                       -15.63974973 [mEh]      -9.81409112 [kcal/mol]     -41.06215725 [kJ/mol]
      Exch-Ind20,r                 20.56498987 [mEh]      12.90472597 [kcal/mol]      53.99337347 [kJ/mol]
      Exch-Ind22                    4.66569998 [mEh]       2.92777094 [kcal/mol]      12.24979362 [kJ/mol]
      delta HF,r (2)               -5.69874392 [mEh]      -3.57601580 [kcal/mol]     -14.96205009 [kJ/mol]

    Dispersion                    -34.42890185 [mEh]     -21.60446208 [kcal/mol]     -90.39306935 [kJ/mol]
      Disp20                      -32.29891515 [mEh]     -20.26787525 [kcal/mol]     -84.80079004 [kJ/mol]
      Disp21                        0.62029750 [mEh]       0.38924256 [kcal/mol]       1.62859085 [kJ/mol]
      Disp22 (SDQ)                 -3.98907246 [mEh]      -2.50318076 [kcal/mol]     -10.47330830 [kJ/mol]
      Disp22 (T)                   -6.14954893 [mEh]      -3.85890021 [kcal/mol]     -16.14563848 [kJ/mol]
      Est. Disp22 (T)              -7.13295636 [mEh]      -4.47599769 [kcal/mol]     -18.72757435 [kJ/mol]
      Exch-Disp20                   8.37174463 [mEh]       5.25334907 [kcal/mol]      21.98001249 [kJ/mol]

  Total HF                       -150.74740598 [mEh]     -94.59542540 [kcal/mol]    -395.78725988 [kJ/mol]
  Total SAPT0                    -174.67457651 [mEh]    -109.60995158 [kcal/mol]    -458.60803743 [kJ/mol]
  Total SAPT2                    -158.60338432 [mEh]     -99.52512623 [kcal/mol]    -416.41312815 [kJ/mol]
  Total SAPT2+                   -169.10511564 [mEh]    -106.11506213 [kcal/mol]    -443.98541995 [kJ/mol]

  Special recipe for scaled SAPT0 (see Manual):
    Electrostatics sSAPT0        -175.22667622 [mEh]    -109.95639939 [kcal/mol]    -460.05757505 [kJ/mol]
    Exchange sSAPT0                78.54829572 [mEh]      49.28979971 [kcal/mol]     206.22852200 [kJ/mol]
    Induction sSAPT0              -54.95329717 [mEh]     -34.48371459 [kcal/mol]    -144.27986185 [kJ/mol]
    Dispersion sSAPT0             -24.28714623 [mEh]     -15.24041435 [kcal/mol]     -63.76589365 [kJ/mol]
  Total sSAPT0                   -175.91882391 [mEh]    -110.39072862 [kcal/mol]    -461.87480855 [kJ/mol]
  --------------------------------------------------------------------------------------------------------

*** Psi4 exiting successfully. Buy a developer a beer!
