                               Psi4 1.8.2 release

  ==> Input File <==

--------------------------------------------------------------------------
MEMORY 60 GB

molecule dimer {
-1 1
F      0.000000     0.000000     0.000000
--
0 1
O      2.677680    -0.431683     0.982344
H      2.933162     0.317043     0.487951
H      1.708005    -0.404595     0.837210
O      1.576856    -0.040462    -2.621091
H      2.404113    -0.374615    -2.443570
H      1.025387    -0.010348    -1.815928
O     -2.450615     0.572312     1.271496
H     -1.576686     0.559397     0.900868
H     -2.799350     1.506271     1.234932
O      0.318935     2.917871     0.285605
H      0.929765     3.196369     1.002172
H      0.243820     1.921280     0.350783
O     -1.632182    -0.210996    -2.315884
H     -1.059865    -0.204007    -1.547666
H     -1.569097     0.672687    -2.721168
O     -0.849068    -2.951308     0.210019
H     -0.770250    -1.966145     0.116227
H     -0.630310    -3.256642    -0.643333

units ang
no_reorient
no_com
symmetry c1
}

set {
basis        aug-cc-pVTZ
scf_type     df
}

energy("sapt2+")
--------------------------------------------------------------------------

  //              Dimer HF             //
    Molecular point group: c1
  Charge       = -1
  Multiplicity = 1
  Basis Set: AUG-CC-PVTZ
    Blend: AUG-CC-PVTZ
  Basis Set: (AUG-CC-PVTZ AUX)
    Blend: AUG-CC-PVTZ-JKFIT
  @DF-RHF Final Energy:  -555.92816815567130
    Total Energy =                       -555.9281681556713011
 Dipole X            :          4.8449248           -3.8332301            1.0116947
 Dipole Y            :         -0.1750511            1.5166318            1.3415807
 Dipole Z            :         41.3525685          -41.0856884            0.2668800
 Magnitude           :                                                    1.7013494
  //            Monomer A HF           //
    Molecular point group: c1
  Multiplicity = 1
  Basis Set: AUG-CC-PVTZ
    Blend: AUG-CC-PVTZ
  Basis Set: (AUG-CC-PVTZ AUX)
    Blend: AUG-CC-PVTZ-JKFIT
  @DF-RHF Final Energy:   -99.45113803156775
    Total Energy =                        -99.4511380315677513
  //            Monomer B HF           //
    Molecular point group: c1

    Geometry (in Angstrom), charge = 0, multiplicity = 1:

       Center              X                  Y                   Z               Mass
    ------------   -----------------  -----------------  -----------------  -----------------
      Gh(F)           0.000000000000     0.000000000000     0.000000000000    18.998403162730
         O            2.677680000000    -0.431683000000     0.982344000000    15.994914619570
         H            2.933162000000     0.317043000000     0.487951000000     1.007825032230
         H            1.708005000000    -0.404595000000     0.837210000000     1.007825032230
         O            1.576856000000    -0.040462000000    -2.621091000000    15.994914619570
         H            2.404113000000    -0.374615000000    -2.443570000000     1.007825032230
         H            1.025387000000    -0.010348000000    -1.815928000000     1.007825032230
         O           -2.450615000000     0.572312000000     1.271496000000    15.994914619570
         H           -1.576686000000     0.559397000000     0.900868000000     1.007825032230
         H           -2.799350000000     1.506271000000     1.234932000000     1.007825032230
         O            0.318935000000     2.917871000000     0.285605000000    15.994914619570
         H            0.929765000000     3.196369000000     1.002172000000     1.007825032230
         H            0.243820000000     1.921280000000     0.350783000000     1.007825032230
         O           -1.632182000000    -0.210996000000    -2.315884000000    15.994914619570
         H           -1.059865000000    -0.204007000000    -1.547666000000     1.007825032230
         H           -1.569097000000     0.672687000000    -2.721168000000     1.007825032230
         O           -0.849068000000    -2.951308000000     0.210019000000    15.994914619570
         H           -0.770250000000    -1.966145000000     0.116227000000     1.007825032230
         H           -0.630310000000    -3.256642000000    -0.643333000000     1.007825032230

  Charge       = 0
  Multiplicity = 1
  Basis Set: AUG-CC-PVTZ
    Blend: AUG-CC-PVTZ
  Basis Set: (AUG-CC-PVTZ AUX)
    Blend: AUG-CC-PVTZ-JKFIT

    Orbital Energies [Eh]
    ---------------------

    Doubly Occupied:

       1A    -20.612416     2A    -20.602649     3A    -20.589007
       4A    -20.588641     5A    -20.587397     6A    -20.578713
       7A     -1.391174     8A     -1.383435     9A     -1.375280
      10A     -1.369045    11A     -1.363793    12A     -1.362229
      13A     -0.767700    14A     -0.745743    15A     -0.741327
      16A     -0.740215    17A     -0.735554    18A     -0.720719
      19A     -0.627119    20A     -0.613199    21A     -0.599887
      22A     -0.597877    23A     -0.595469    24A     -0.592713
      25A     -0.546581    26A     -0.544067    27A     -0.537669
      28A     -0.530288    29A     -0.523571    30A     -0.519279

  @DF-RHF Final Energy:  -456.32671520926726

   => Energetics <=

    Nuclear Repulsion Energy =            242.9904856749113264
    One-Electron Energy =               -1112.4688868343387185
    Two-Electron Energy =                 413.1516859501601857
    Total Energy =                       -456.3267152092672632
 Dipole X            :          4.8264653           -3.8332301            0.9932353
 Dipole Y            :         -0.0264750            1.5166318            1.4901568
 Dipole Z            :         41.0973630          -41.0856884            0.0116745
 Magnitude           :                                                    1.7908712

    SAPT Results
  --------------------------------------------------------------------------------------------------------
    Electrostatics               -162.93049417 [mEh]    -102.24042866 [kcal/mol]    -427.77395352 [kJ/mol]
      Elst10,r                   -163.53725065 [mEh]    -102.62117410 [kcal/mol]    -429.36699243 [kJ/mol]
      Elst12,r                      0.60675648 [mEh]       0.38074544 [kcal/mol]       1.59303891 [kJ/mol]

    Exchange                       82.74161400 [mEh]      51.92114666 [kcal/mol]     217.23807763 [kJ/mol]
      Exch10                       60.03798922 [mEh]      37.67440702 [kcal/mol]     157.62971898 [kJ/mol]
      Exch10(S^2)                  60.76876826 [mEh]      38.13297779 [kcal/mol]     159.54837907 [kJ/mol]
      Exch11(S^2)                   1.50694452 [mEh]       0.94562196 [kcal/mol]       3.95648228 [kJ/mol]
      Exch12(S^2)                  21.19668026 [mEh]      13.30111768 [kcal/mol]      55.65187637 [kJ/mol]

    Induction                     -56.30294434 [mEh]     -35.33063098 [kcal/mol]    -147.82336001 [kJ/mol]
      Ind20,r                     -58.13209656 [mEh]     -36.47844132 [kcal/mol]    -152.62579849 [kJ/mol]
      Ind22                       -13.07610396 [mEh]      -8.20537911 [kcal/mol]     -34.33130621 [kJ/mol]
      Exch-Ind20,r                 15.95469304 [mEh]      10.01172103 [kcal/mol]      41.88904081 [kJ/mol]
      Exch-Ind22                    3.58881302 [mEh]       2.25201417 [kcal/mol]       9.42242728 [kJ/mol]
      delta HF,r (2)               -4.63824989 [mEh]      -2.91054574 [kcal/mol]     -12.17772340 [kJ/mol]

    Dispersion                    -29.19376426 [mEh]     -18.31936365 [kcal/mol]     -76.64821751 [kJ/mol]
      Disp20                      -26.58980616 [mEh]     -16.68535527 [kcal/mol]     -69.81152646 [kJ/mol]
      Disp21                        0.22791395 [mEh]       0.14301817 [kcal/mol]       0.59838800 [kJ/mol]
      Disp22 (SDQ)                 -3.44227020 [mEh]      -2.16005716 [kcal/mol]      -9.03767917 [kJ/mol]
      Disp22 (T)                   -5.07179095 [mEh]      -3.18259687 [kcal/mol]     -13.31598530 [kJ/mol]
      Est. Disp22 (T)              -5.96864782 [mEh]      -3.74538305 [kcal/mol]     -15.67068268 [kJ/mol]
      Exch-Disp20                   6.57904597 [mEh]       4.12841367 [kcal/mol]      17.27328281 [kJ/mol]

  Total HF                       -150.31491484 [mEh]     -94.32403311 [kcal/mol]    -394.65175453 [kJ/mol]
  Total SAPT0                    -170.32567503 [mEh]    -106.88097471 [kcal/mol]    -447.18999819 [kJ/mol]
  Total SAPT2                    -156.50258472 [mEh]     -98.20685458 [kcal/mol]    -410.89747956 [kJ/mol]
  Total SAPT2+                   -165.68558878 [mEh]    -103.96927663 [kcal/mol]    -435.00745341 [kJ/mol]

  Special recipe for scaled SAPT0 (see Manual):
    Electrostatics sSAPT0        -163.53725065 [mEh]    -102.62117410 [kcal/mol]    -429.36699243 [kJ/mol]
    Exchange sSAPT0                60.03798922 [mEh]      37.67440702 [kcal/mol]     157.62971898 [kJ/mol]
    Induction sSAPT0              -47.38435212 [mEh]     -29.73412986 [kcal/mol]    -124.40759935 [kJ/mol]
    Dispersion sSAPT0             -20.24526769 [mEh]     -12.70409727 [kcal/mol]     -53.15394299 [kJ/mol]
  Total sSAPT0                   -171.12888124 [mEh]    -107.38499421 [kcal/mol]    -449.29881579 [kJ/mol]
  --------------------------------------------------------------------------------------------------------

*** Psi4 exiting successfully. Buy a developer a beer!
