                               Psi4 1.8.2 release

  ==> Input File <==

--------------------------------------------------------------------------
MEMORY 60 GB

molecule dimer {
-1 1
F      0.000000     0.000000     0.000000
--
0 1
O      1.451835    -1.452535     2.052395
H      1.469584    -0.899906     1.315952
H      1.373633    -0.980960     2.860466
O     -0.559359    -2.672142    -0.866309
H      0.288354    -3.135902    -0.865194
H     -0.225876    -1.778096    -0.742343
O      1.611940     2.034987     1.608686
H      1.025985     2.541931     2.212233
H      0.965893     1.555115     0.966858
O     -1.608533    -0.904734     2.300778
H     -1.271895    -0.716260     1.375122
H     -0.910123    -1.497503     2.647384
O     -2.280907     1.332090     0.163613
H     -1.494680     0.704833    -0.100659
H     -1.895508     2.117946     0.620702
O      0.450456     0.337148    -2.757854
H      1.193771     0.963211    -3.022596
H      0.495681     0.289983    -1.818199

units ang
no_reorient
no_com
symmetry c1
}

set {
basis        aug-cc-pVTZ
scf_type     df
}

energy("sapt2+")
--------------------------------------------------------------------------

  //              Dimer HF             //
    Molecular point group: c1
  Charge       = -1
  Multiplicity = 1
  Basis Set: AUG-CC-PVTZ
    Blend: AUG-CC-PVTZ
  Basis Set: (AUG-CC-PVTZ AUX)
    Blend: AUG-CC-PVTZ-JKFIT
  @DF-RHF Final Energy:  -555.90615559340313
    Total Energy =                       -555.9061555934031276
 Dipole X            :         14.2858001          -12.2108905            2.0749095
 Dipole Y            :         22.7653613          -21.6129791            1.1523822
 Dipole Z            :        -48.0297118           48.1128013            0.0830896
 Magnitude           :                                                    2.3748975
  //            Monomer A HF           //
    Molecular point group: c1
  Multiplicity = 1
  Basis Set: AUG-CC-PVTZ
    Blend: AUG-CC-PVTZ
  Basis Set: (AUG-CC-PVTZ AUX)
    Blend: AUG-CC-PVTZ-JKFIT
  @DF-RHF Final Energy:   -99.45115311488230
    Total Energy =                        -99.4511531148823025
  //            Monomer B HF           //
    Molecular point group: c1

    Geometry (in Angstrom), charge = 0, multiplicity = 1:

       Center              X                  Y                   Z               Mass
    ------------   -----------------  -----------------  -----------------  -----------------
      Gh(F)           0.000000000000     0.000000000000     0.000000000000    18.998403162730
         O            1.451835000000    -1.452535000000     2.052395000000    15.994914619570
         H            1.469584000000    -0.899906000000     1.315952000000     1.007825032230
         H            1.373633000000    -0.980960000000     2.860466000000     1.007825032230
         O           -0.559359000000    -2.672142000000    -0.866309000000    15.994914619570
         H            0.288354000000    -3.135902000000    -0.865194000000     1.007825032230
         H           -0.225876000000    -1.778096000000    -0.742343000000     1.007825032230
         O            1.611940000000     2.034987000000     1.608686000000    15.994914619570
         H            1.025985000000     2.541931000000     2.212233000000     1.007825032230
         H            0.965893000000     1.555115000000     0.966858000000     1.007825032230
         O           -1.608533000000    -0.904734000000     2.300778000000    15.994914619570
         H           -1.271895000000    -0.716260000000     1.375122000000     1.007825032230
         H           -0.910123000000    -1.497503000000     2.647384000000     1.007825032230
         O           -2.280907000000     1.332090000000     0.163613000000    15.994914619570
         H           -1.494680000000     0.704833000000    -0.100659000000     1.007825032230
         H           -1.895508000000     2.117946000000     0.620702000000     1.007825032230
         O            0.450456000000     0.337148000000    -2.757854000000    15.994914619570
         H            1.193771000000     0.963211000000    -3.022596000000     1.007825032230
         H            0.495681000000     0.289983000000    -1.818199000000     1.007825032230

  Charge       = 0
  Multiplicity = 1
  Basis Set: AUG-CC-PVTZ
    Blend: AUG-CC-PVTZ
  Basis Set: (AUG-CC-PVTZ AUX)
    Blend: AUG-CC-PVTZ-JKFIT

    Orbital Energies [Eh]
    ---------------------

    Doubly Occupied:

       1A    -20.614431     2A    -20.598655     3A    -20.598374
       4A    -20.587415     5A    -20.584046     6A    -20.569999
       7A     -1.393025     8A     -1.374235     9A     -1.369454
      10A     -1.367449    11A     -1.348487    12A     -1.335075
      13A     -0.780725    14A     -0.740085    15A     -0.731803
      16A     -0.720241    17A     -0.713718    18A     -0.689927
      19A     -0.614746    20A     -0.608006    21A     -0.606967
      22A     -0.604441    23A     -0.590848    24A     -0.584418
      25A     -0.545081    26A     -0.537007    27A     -0.536823
      28A     -0.526548    29A     -0.523348    30A     -0.503285

  @DF-RHF Final Energy:  -456.31401482970421

   => Energetics <=

    Nuclear Repulsion Energy =            249.0364541137890058
    One-Electron Energy =               -1124.9036118053463724
    Two-Electron Energy =                 419.5531428618531891
    Total Energy =                       -456.3140148297042060
 Dipole X            :         14.0280909          -12.2108905            1.8172004
 Dipole Y            :         22.8373159          -21.6129791            1.2243368
 Dipole Z            :        -47.7808765           48.1128013            0.3319248
 Magnitude           :                                                    2.2161661

    SAPT Results
  --------------------------------------------------------------------------------------------------------
    Electrostatics               -167.76188115 [mEh]    -105.27216976 [kcal/mol]    -440.45875827 [kJ/mol]
      Elst10,r                   -166.58004679 [mEh]    -104.53055750 [kcal/mol]    -437.35585258 [kJ/mol]
      Elst12,r                     -1.18183436 [mEh]      -0.74161226 [kcal/mol]      -3.10290569 [kJ/mol]

    Exchange                      104.97503946 [mEh]      65.87283177 [kcal/mol]     275.61192813 [kJ/mol]
      Exch10                       77.89153834 [mEh]      48.87767824 [kcal/mol]     204.50420574 [kJ/mol]
      Exch10(S^2)                  78.77640968 [mEh]      49.43294338 [kcal/mol]     206.82743511 [kJ/mol]
      Exch11(S^2)                   1.68266076 [mEh]       1.05588557 [kcal/mol]       4.41782522 [kJ/mol]
      Exch12(S^2)                  25.40084036 [mEh]      15.93926797 [kcal/mol]      66.68989717 [kJ/mol]

    Induction                     -62.90857995 [mEh]     -39.47572990 [kcal/mol]    -165.16645390 [kJ/mol]
      Ind20,r                     -67.81419314 [mEh]     -42.55404865 [kcal/mol]    -178.04613956 [kJ/mol]
      Ind22                       -15.75419764 [mEh]      -9.88590827 [kcal/mol]     -41.36264020 [kJ/mol]
      Exch-Ind20,r                 22.14569253 [mEh]      13.89663187 [kcal/mol]      58.14350773 [kJ/mol]
      Exch-Ind22                    5.14475806 [mEh]       3.22838442 [kcal/mol]      13.50756043 [kJ/mol]
      delta HF,r (2)               -6.63063976 [mEh]      -4.16078927 [kcal/mol]     -17.40874229 [kJ/mol]

    Dispersion                    -33.04081495 [mEh]     -20.73342440 [kcal/mol]     -86.74864770 [kJ/mol]
      Disp20                      -31.17590385 [mEh]     -19.56317502 [kcal/mol]     -81.85232427 [kJ/mol]
      Disp21                        0.68761653 [mEh]       0.43148589 [kcal/mol]       1.80533696 [kJ/mol]
      Disp22 (SDQ)                 -3.93165788 [mEh]      -2.46715257 [kcal/mol]     -10.32256633 [kJ/mol]
      Disp22 (T)                   -5.90676819 [mEh]      -3.70655300 [kcal/mol]     -15.50821776 [kJ/mol]
      Est. Disp22 (T)              -6.90674927 [mEh]      -4.33405060 [kcal/mol]     -18.13366770 [kJ/mol]
      Exch-Disp20                   8.28587951 [mEh]       5.19946789 [kcal/mol]      21.75457365 [kJ/mol]

  Total HF                       -140.98764882 [mEh]     -88.47108532 [kcal/mol]    -370.16302097 [kJ/mol]
  Total SAPT0                    -163.87767316 [mEh]    -102.83479245 [kcal/mol]    -430.26077160 [kJ/mol]
  Total SAPT2                    -148.58544598 [mEh]     -93.23877502 [kcal/mol]    -390.11103467 [kJ/mol]
  Total SAPT2+                   -158.73623659 [mEh]     -99.60849229 [kcal/mol]    -416.76193174 [kJ/mol]

  Special recipe for scaled SAPT0 (see Manual):
    Electrostatics sSAPT0        -166.58004679 [mEh]    -104.53055750 [kcal/mol]    -437.35585258 [kJ/mol]
    Exchange sSAPT0                77.89153834 [mEh]      48.87767824 [kcal/mol]     204.50420574 [kJ/mol]
    Induction sSAPT0              -53.03705655 [mEh]     -33.28125545 [kcal/mol]    -139.24877280 [kJ/mol]
    Dispersion sSAPT0             -23.16611797 [mEh]     -14.53695850 [kcal/mol]     -60.82263435 [kJ/mol]
  Total sSAPT0                   -164.89168297 [mEh]    -103.47109321 [kcal/mol]    -432.92305399 [kJ/mol]
  --------------------------------------------------------------------------------------------------------

*** Psi4 exiting successfully. Buy a developer a beer!
