                               Psi4 1.8.2 release

  ==> Input File <==

--------------------------------------------------------------------------
MEMORY 60 GB

molecule dimer {
-1 1
F      0.000000     0.000000     0.000000
--
0 1
O     -2.818009     0.609374     0.162654
H     -1.778956     0.483442     0.271480
H     -3.220632    -0.066597     0.720491
O      2.085754    -1.822979    -0.697573
H      2.754417    -1.496247    -1.384254
H      1.490905    -1.032822    -0.528178
O     -0.773104    -2.486148     1.447167
H     -0.692628    -2.818456     0.550011
H     -0.394834    -1.622647     1.363823
O      2.467600     1.038241     0.886347
H      2.596338     2.004501     0.812912
H      1.536657     0.944574     0.699383
O     -0.424368     1.472416    -2.159466
H     -0.175504     0.768040    -2.700271
H     -0.368831     1.043143    -1.301063
O     -1.314798    -2.040510    -1.451150
H     -0.878057    -1.502413    -0.767622
H     -2.315826    -1.736101    -1.458899

units ang
no_reorient
no_com
symmetry c1
}

set {
basis        aug-cc-pVTZ
scf_type     df
}

energy("sapt2+")
--------------------------------------------------------------------------

  //              Dimer HF             //
    Molecular point group: c1
  Charge       = -1
  Multiplicity = 1
  Basis Set: AUG-CC-PVTZ
    Blend: AUG-CC-PVTZ
  Basis Set: (AUG-CC-PVTZ AUX)
    Blend: AUG-CC-PVTZ-JKFIT
  @DF-RHF Final Energy:  -555.91063019101307
    Total Energy =                       -555.9106301910130696
 Dipole X            :         14.6921486          -14.4797449            0.2124037
 Dipole Y            :         59.4361929          -58.3328805            1.1033124
 Dipole Z            :         34.6439056          -34.4277014            0.2162042
 Magnitude           :                                                    1.1441844
  //            Monomer A HF           //
    Molecular point group: c1
  Multiplicity = 1
  Basis Set: AUG-CC-PVTZ
    Blend: AUG-CC-PVTZ
  Basis Set: (AUG-CC-PVTZ AUX)
    Blend: AUG-CC-PVTZ-JKFIT
  @DF-RHF Final Energy:   -99.45115196160310
    Total Energy =                        -99.4511519616031023
  //            Monomer B HF           //
    Molecular point group: c1

    Geometry (in Angstrom), charge = 0, multiplicity = 1:

       Center              X                  Y                   Z               Mass
    ------------   -----------------  -----------------  -----------------  -----------------
      Gh(F)           0.000000000000     0.000000000000     0.000000000000    18.998403162730
         O           -2.818009000000     0.609374000000     0.162654000000    15.994914619570
         H           -1.778956000000     0.483442000000     0.271480000000     1.007825032230
         H           -3.220632000000    -0.066597000000     0.720491000000     1.007825032230
         O            2.085754000000    -1.822979000000    -0.697573000000    15.994914619570
         H            2.754417000000    -1.496247000000    -1.384254000000     1.007825032230
         H            1.490905000000    -1.032822000000    -0.528178000000     1.007825032230
         O           -0.773104000000    -2.486148000000     1.447167000000    15.994914619570
         H           -0.692628000000    -2.818456000000     0.550011000000     1.007825032230
         H           -0.394834000000    -1.622647000000     1.363823000000     1.007825032230
         O            2.467600000000     1.038241000000     0.886347000000    15.994914619570
         H            2.596338000000     2.004501000000     0.812912000000     1.007825032230
         H            1.536657000000     0.944574000000     0.699383000000     1.007825032230
         O           -0.424368000000     1.472416000000    -2.159466000000    15.994914619570
         H           -0.175504000000     0.768040000000    -2.700271000000     1.007825032230
         H           -0.368831000000     1.043143000000    -1.301063000000     1.007825032230
         O           -1.314798000000    -2.040510000000    -1.451150000000    15.994914619570
         H           -0.878057000000    -1.502413000000    -0.767622000000     1.007825032230
         H           -2.315826000000    -1.736101000000    -1.458899000000     1.007825032230

  Charge       = 0
  Multiplicity = 1
  Basis Set: AUG-CC-PVTZ
    Blend: AUG-CC-PVTZ
  Basis Set: (AUG-CC-PVTZ AUX)
    Blend: AUG-CC-PVTZ-JKFIT

    Orbital Energies [Eh]
    ---------------------

    Doubly Occupied:

       1A    -20.607509     2A    -20.603059     3A    -20.598213
       4A    -20.591003     5A    -20.590943     6A    -20.580819
       7A     -1.390354     8A     -1.379916     9A     -1.376069
      10A     -1.362093    11A     -1.357052    12A     -1.344359
      13A     -0.745503    14A     -0.739191    15A     -0.734513
      16A     -0.725397    17A     -0.721034    18A     -0.705410
      19A     -0.621872    20A     -0.615256    21A     -0.612562
      22A     -0.603138    23A     -0.596785    24A     -0.589920
      25A     -0.541993    26A     -0.538801    27A     -0.537112
      28A     -0.533758    29A     -0.520991    30A     -0.519316

  @DF-RHF Final Energy:  -456.30999513700488

   => Energetics <=

    Nuclear Repulsion Energy =            255.6984228189957378
    One-Electron Energy =               -1138.0489451854375602
    Two-Electron Energy =                 426.0405272294369752
    Total Energy =                       -456.3099951370048757
 Dipole X            :         14.5053721          -14.4797449            0.0256273
 Dipole Y            :         59.1715024          -58.3328805            0.8386219
 Dipole Z            :         34.2282558          -34.4277014           -0.1994456
 Magnitude           :                                                    0.8623932

    SAPT Results
  --------------------------------------------------------------------------------------------------------
    Electrostatics               -180.21269260 [mEh]    -113.08517190 [kcal/mol]    -473.14835925 [kJ/mol]
      Elst10,r                   -179.37572041 [mEh]    -112.55996392 [kcal/mol]    -470.95088905 [kJ/mol]
      Elst12,r                     -0.83697219 [mEh]      -0.52520798 [kcal/mol]      -2.19747020 [kJ/mol]

    Exchange                      113.04290698 [mEh]      70.93549507 [kcal/mol]     296.79411138 [kJ/mol]
      Exch10                       83.90828276 [mEh]      52.65324236 [kcal/mol]     220.30116604 [kJ/mol]
      Exch10(S^2)                  84.98040923 [mEh]      53.32601188 [kcal/mol]     223.11603371 [kJ/mol]
      Exch11(S^2)                   1.98400817 [mEh]       1.24498392 [kcal/mol]       5.20901272 [kJ/mol]
      Exch12(S^2)                  27.15061605 [mEh]      17.03726879 [kcal/mol]      71.28393261 [kJ/mol]

    Induction                     -65.17310883 [mEh]     -40.89674323 [kcal/mol]    -171.11197366 [kJ/mol]
      Ind20,r                     -71.09982623 [mEh]     -44.61581454 [kcal/mol]    -186.67256804 [kJ/mol]
      Ind22                       -16.60642149 [mEh]     -10.42068681 [kcal/mol]     -43.60015362 [kJ/mol]
      Exch-Ind20,r                 23.32956783 [mEh]      14.63952483 [kcal/mol]      61.25177189 [kJ/mol]
      Exch-Ind22                    5.44896742 [mEh]       3.41927868 [kcal/mol]      14.30626198 [kJ/mol]
      delta HF,r (2)               -6.24539636 [mEh]      -3.91904538 [kcal/mol]     -16.39728587 [kJ/mol]

    Dispersion                    -35.24914052 [mEh]     -22.11916962 [kcal/mol]     -92.54660569 [kJ/mol]
      Disp20                      -33.43916441 [mEh]     -20.98339246 [kcal/mol]     -87.79451407 [kJ/mol]
      Disp21                        0.84724057 [mEh]       0.53165149 [kcal/mol]       2.22442982 [kJ/mol]
      Disp22 (SDQ)                 -4.18358924 [mEh]      -2.62524188 [kcal/mol]     -10.98401204 [kJ/mol]
      Disp22 (T)                   -6.34507515 [mEh]      -3.98159477 [kcal/mol]     -16.65899251 [kJ/mol]
      Est. Disp22 (T)              -7.37909181 [mEh]      -4.63045002 [kcal/mol]     -19.37380288 [kJ/mol]
      Exch-Disp20                   8.90546437 [mEh]       5.58826326 [kcal/mol]      23.38129348 [kJ/mol]

  Total HF                       -149.48309241 [mEh]     -93.80205665 [kcal/mol]    -392.46780504 [kJ/mol]
  Total SAPT0                    -174.01679245 [mEh]    -109.19718586 [kcal/mol]    -456.88102563 [kJ/mol]
  Total SAPT2                    -156.87659450 [mEh]     -98.44154926 [kcal/mol]    -411.87944212 [kJ/mol]
  Total SAPT2+                   -167.59203498 [mEh]    -105.16558968 [kcal/mol]    -440.01282723 [kJ/mol]

  Special recipe for scaled SAPT0 (see Manual):
    Electrostatics sSAPT0        -179.37572041 [mEh]    -112.55996392 [kcal/mol]    -470.95088905 [kJ/mol]
    Exchange sSAPT0                83.90828276 [mEh]      52.65324236 [kcal/mol]     220.30116604 [kJ/mol]
    Induction sSAPT0              -54.88755039 [mEh]     -34.44245786 [kcal/mol]    -144.10724368 [kJ/mol]
    Dispersion sSAPT0             -24.86652384 [mEh]     -15.60397929 [kcal/mol]     -65.28704936 [kJ/mol]
  Total sSAPT0                   -175.22151188 [mEh]    -109.95315871 [kcal/mol]    -460.04401605 [kJ/mol]
  --------------------------------------------------------------------------------------------------------

*** Psi4 exiting successfully. Buy a developer a beer!
