                               Psi4 1.8.2 release

  ==> Input File <==

--------------------------------------------------------------------------
MEMORY 60 GB

molecule dimer {
-1 1
F      0.000000     0.000000     0.000000
--
0 1
O      1.083487     1.163503    -2.426510
H      0.943812     0.577349    -3.200577
H      0.539524     0.760717    -1.711888
O     -0.494244    -2.731057     0.347994
H     -0.429507    -1.802030     0.254898
H      0.255994    -3.099428    -0.002083
O     -1.560254     2.216611     0.530057
H     -1.025108     3.040199     0.409244
H     -0.961843     1.486509     0.454221
O      1.214809     0.712872     2.482325
H      0.834328     0.841337     1.604326
H      1.778510    -0.049437     2.410774
O      2.620893    -1.324543     0.095877
H      1.695148    -0.897003     0.074745
H      2.528597    -2.249405    -0.321033
O     -2.624165    -0.409702    -1.323028
H     -3.303734    -0.066172    -0.725785
H     -1.750133    -0.322732    -0.885164

units ang
no_reorient
no_com
symmetry c1
}

set {
basis        aug-cc-pVTZ
scf_type     df
}

energy("sapt2+")
--------------------------------------------------------------------------

  //              Dimer HF             //
    Molecular point group: c1
  Charge       = -1
  Multiplicity = 1
  Basis Set: AUG-CC-PVTZ
    Blend: AUG-CC-PVTZ
  Basis Set: (AUG-CC-PVTZ AUX)
    Blend: AUG-CC-PVTZ-JKFIT
  @DF-RHF Final Energy:  -555.92398446822199
    Total Energy =                       -555.9239844682219882
 Dipole X            :         -5.3435474            5.7254847            0.3819373
 Dipole Y            :          8.4440113           -8.9924961           -0.5484848
 Dipole Z            :          6.9151046           -7.5298065           -0.6147019
 Magnitude           :                                                    0.9080584
  //            Monomer A HF           //
    Molecular point group: c1
  Multiplicity = 1
  Basis Set: AUG-CC-PVTZ
    Blend: AUG-CC-PVTZ
  Basis Set: (AUG-CC-PVTZ AUX)
    Blend: AUG-CC-PVTZ-JKFIT
  @DF-RHF Final Energy:   -99.45114802952885
    Total Energy =                        -99.4511480295288521
  //            Monomer B HF           //
    Molecular point group: c1

    Geometry (in Angstrom), charge = 0, multiplicity = 1:

       Center              X                  Y                   Z               Mass
    ------------   -----------------  -----------------  -----------------  -----------------
      Gh(F)           0.000000000000     0.000000000000     0.000000000000    18.998403162730
         O            1.083487000000     1.163503000000    -2.426510000000    15.994914619570
         H            0.943812000000     0.577349000000    -3.200577000000     1.007825032230
         H            0.539524000000     0.760717000000    -1.711888000000     1.007825032230
         O           -0.494244000000    -2.731057000000     0.347994000000    15.994914619570
         H           -0.429507000000    -1.802030000000     0.254898000000     1.007825032230
         H            0.255994000000    -3.099428000000    -0.002083000000     1.007825032230
         O           -1.560254000000     2.216611000000     0.530057000000    15.994914619570
         H           -1.025108000000     3.040199000000     0.409244000000     1.007825032230
         H           -0.961843000000     1.486509000000     0.454221000000     1.007825032230
         O            1.214809000000     0.712872000000     2.482325000000    15.994914619570
         H            0.834328000000     0.841337000000     1.604326000000     1.007825032230
         H            1.778510000000    -0.049437000000     2.410774000000     1.007825032230
         O            2.620893000000    -1.324543000000     0.095877000000    15.994914619570
         H            1.695148000000    -0.897003000000     0.074745000000     1.007825032230
         H            2.528597000000    -2.249405000000    -0.321033000000     1.007825032230
         O           -2.624165000000    -0.409702000000    -1.323028000000    15.994914619570
         H           -3.303734000000    -0.066172000000    -0.725785000000     1.007825032230
         H           -1.750133000000    -0.322732000000    -0.885164000000     1.007825032230

  Charge       = 0
  Multiplicity = 1
  Basis Set: AUG-CC-PVTZ
    Blend: AUG-CC-PVTZ
  Basis Set: (AUG-CC-PVTZ AUX)
    Blend: AUG-CC-PVTZ-JKFIT

    Orbital Energies [Eh]
    ---------------------

    Doubly Occupied:

       1A    -20.615946     2A    -20.596797     3A    -20.595667
       4A    -20.592071     5A    -20.585498     6A    -20.583864
       7A     -1.404243     8A     -1.375255     9A     -1.371119
      10A     -1.365810    11A     -1.361685    12A     -1.357431
      13A     -0.779793    14A     -0.748466    15A     -0.737068
      16A     -0.732572    17A     -0.730929    18A     -0.727074
      19A     -0.623858    20A     -0.606276    21A     -0.604297
      22A     -0.600240    23A     -0.599116    24A     -0.588663
      25A     -0.547896    26A     -0.541124    27A     -0.537435
      28A     -0.531373    29A     -0.527565    30A     -0.520639

  @DF-RHF Final Energy:  -456.32116527931612

   => Energetics <=

    Nuclear Repulsion Energy =            246.8899220828886882
    One-Electron Energy =               -1120.2426257904191971
    Two-Electron Energy =                 417.0315384282143896
    Total Energy =                       -456.3211652793161193
 Dipole X            :         -5.2729579            5.7254847            0.4525268
 Dipole Y            :          8.3580731           -8.9924961           -0.6344230
 Dipole Z            :          6.8308740           -7.5298065           -0.6989325
 Magnitude           :                                                    1.0467950

    SAPT Results
  --------------------------------------------------------------------------------------------------------
    Electrostatics               -173.30121501 [mEh]    -108.74815424 [kcal/mol]    -455.00227733 [kJ/mol]
      Elst10,r                   -173.18695631 [mEh]    -108.67645582 [kcal/mol]    -454.70229116 [kJ/mol]
      Elst12,r                     -0.11425870 [mEh]      -0.07169842 [kcal/mol]      -0.29998617 [kJ/mol]

    Exchange                       98.60002044 [mEh]      61.87244694 [kcal/mol]     258.87431801 [kJ/mol]
      Exch10                       72.23525376 [mEh]      45.32830607 [kcal/mol]     189.65363261 [kJ/mol]
      Exch10(S^2)                  73.22024819 [mEh]      45.94639941 [kcal/mol]     192.23973514 [kJ/mol]
      Exch11(S^2)                   1.68381834 [mEh]       1.05661196 [kcal/mol]       4.42086444 [kJ/mol]
      Exch12(S^2)                  24.68094835 [mEh]      15.48752891 [kcal/mol]      64.79982097 [kJ/mol]

    Induction                     -61.26651544 [mEh]     -38.44531886 [kcal/mol]    -160.85521413 [kJ/mol]
      Ind20,r                     -65.07653342 [mEh]     -40.83614124 [kcal/mol]    -170.85841496 [kJ/mol]
      Ind22                       -15.08383637 [mEh]      -9.46525022 [kcal/mol]     -39.60260694 [kJ/mol]
      Exch-Ind20,r                 19.57312196 [mEh]      12.28231946 [kcal/mol]      51.38922462 [kJ/mol]
      Exch-Ind22                    4.53677775 [mEh]       2.84687102 [kcal/mol]      11.91130834 [kJ/mol]
      delta HF,r (2)               -5.21604535 [mEh]      -3.27311787 [kcal/mol]     -13.69472519 [kJ/mol]

    Dispersion                    -32.61861707 [mEh]     -20.46849123 [kcal/mol]     -85.64016732 [kJ/mol]
      Disp20                      -30.26475182 [mEh]     -18.99141849 [kcal/mol]     -79.46009494 [kJ/mol]
      Disp21                        0.44089041 [mEh]       0.27666291 [kcal/mol]       1.15755762 [kJ/mol]
      Disp22 (SDQ)                 -3.85401252 [mEh]      -2.41842937 [kcal/mol]     -10.11870849 [kJ/mol]
      Disp22 (T)                   -5.75329726 [mEh]      -3.61024853 [kcal/mol]     -15.10527986 [kJ/mol]
      Est. Disp22 (T)              -6.71878793 [mEh]      -4.21610308 [kcal/mol]     -17.64017527 [kJ/mol]
      Exch-Disp20                   7.77804478 [mEh]       4.88079679 [kcal/mol]      20.42125376 [kJ/mol]

  Total HF                       -151.67115938 [mEh]     -95.17508941 [kcal/mol]    -398.21257408 [kJ/mol]
  Total SAPT0                    -174.15786641 [mEh]    -109.28571111 [kcal/mol]    -457.25141527 [kJ/mol]
  Total SAPT2                    -158.45441704 [mEh]     -99.43164786 [kcal/mol]    -416.02201463 [kJ/mol]
  Total SAPT2+                   -168.58632708 [mEh]    -105.78951739 [kcal/mol]    -442.62334077 [kJ/mol]

  Special recipe for scaled SAPT0 (see Manual):
    Electrostatics sSAPT0        -173.18695631 [mEh]    -108.67645582 [kcal/mol]    -454.70229116 [kJ/mol]
    Exchange sSAPT0                72.23525376 [mEh]      45.32830607 [kcal/mol]     189.65363261 [kJ/mol]
    Induction sSAPT0              -51.49879956 [mEh]     -32.31598461 [kcal/mol]    -135.21007963 [kJ/mol]
    Dispersion sSAPT0             -22.79640534 [mEh]     -14.30496032 [kcal/mol]     -59.85195398 [kJ/mol]
  Total sSAPT0                   -175.24690746 [mEh]    -109.96909468 [kcal/mol]    -460.11069216 [kJ/mol]
  --------------------------------------------------------------------------------------------------------

*** Psi4 exiting successfully. Buy a developer a beer!
