                               Psi4 1.8.2 release

  ==> Input File <==

--------------------------------------------------------------------------
MEMORY 60 GB

molecule dimer {
-1 1
F      0.000000     0.000000     0.000000
--
0 1
O      1.815615    -0.941221    -2.028679
H      1.196320    -0.603635    -1.341781
H      1.329942    -1.625481    -2.584256
O     -0.164743    -2.684351     0.868609
H     -0.119543    -1.813088     0.511185
H     -0.233705    -2.576983     1.812943
O      2.572567     0.988403     0.505127
H      2.611520     0.617316     1.382224
H      1.660090     0.661148     0.292697
O     -1.733909     0.639512     2.242591
H     -1.151471     0.428192     1.444013
H     -1.823257     1.594147     2.421441
O     -2.609308    -1.257365    -0.345859
H     -1.768286    -0.883322    -0.559987
H     -2.703850    -1.219159     0.584343
O     -1.727752     1.500209    -1.627650
H     -1.125877     0.925771    -1.141094
H     -2.322672     0.851685    -2.088837

units ang
no_reorient
no_com
symmetry c1
}

set {
basis        aug-cc-pVTZ
scf_type     df
}

energy("sapt2+")
--------------------------------------------------------------------------

  //              Dimer HF             //
    Molecular point group: c1
  Charge       = -1
  Multiplicity = 1
  Basis Set: AUG-CC-PVTZ
    Blend: AUG-CC-PVTZ
  Basis Set: (AUG-CC-PVTZ AUX)
    Blend: AUG-CC-PVTZ-JKFIT
  @DF-RHF Final Energy:  -555.92391055602604
    Total Energy =                       -555.9239105560260441
 Dipole X            :         36.0014379          -36.3413779           -0.3399400
 Dipole Y            :         33.5287397          -33.4139729            0.1147668
 Dipole Z            :          5.4689249           -4.4484096            1.0205153
 Magnitude           :                                                    1.0817495
  //            Monomer A HF           //
    Molecular point group: c1
  Multiplicity = 1
  Basis Set: AUG-CC-PVTZ
    Blend: AUG-CC-PVTZ
  Basis Set: (AUG-CC-PVTZ AUX)
    Blend: AUG-CC-PVTZ-JKFIT
  @DF-RHF Final Energy:   -99.45115090278377
    Total Energy =                        -99.4511509027837661
  //            Monomer B HF           //
    Molecular point group: c1

    Geometry (in Angstrom), charge = 0, multiplicity = 1:

       Center              X                  Y                   Z               Mass
    ------------   -----------------  -----------------  -----------------  -----------------
      Gh(F)           0.000000000000     0.000000000000     0.000000000000    18.998403162730
         O            1.815615000000    -0.941221000000    -2.028679000000    15.994914619570
         H            1.196320000000    -0.603635000000    -1.341781000000     1.007825032230
         H            1.329942000000    -1.625481000000    -2.584256000000     1.007825032230
         O           -0.164743000000    -2.684351000000     0.868609000000    15.994914619570
         H           -0.119543000000    -1.813088000000     0.511185000000     1.007825032230
         H           -0.233705000000    -2.576983000000     1.812943000000     1.007825032230
         O            2.572567000000     0.988403000000     0.505127000000    15.994914619570
         H            2.611520000000     0.617316000000     1.382224000000     1.007825032230
         H            1.660090000000     0.661148000000     0.292697000000     1.007825032230
         O           -1.733909000000     0.639512000000     2.242591000000    15.994914619570
         H           -1.151471000000     0.428192000000     1.444013000000     1.007825032230
         H           -1.823257000000     1.594147000000     2.421441000000     1.007825032230
         O           -2.609308000000    -1.257365000000    -0.345859000000    15.994914619570
         H           -1.768286000000    -0.883322000000    -0.559987000000     1.007825032230
         H           -2.703850000000    -1.219159000000     0.584343000000     1.007825032230
         O           -1.727752000000     1.500209000000    -1.627650000000    15.994914619570
         H           -1.125877000000     0.925771000000    -1.141094000000     1.007825032230
         H           -2.322672000000     0.851685000000    -2.088837000000     1.007825032230

  Charge       = 0
  Multiplicity = 1
  Basis Set: AUG-CC-PVTZ
    Blend: AUG-CC-PVTZ
  Basis Set: (AUG-CC-PVTZ AUX)
    Blend: AUG-CC-PVTZ-JKFIT

    Orbital Energies [Eh]
    ---------------------

    Doubly Occupied:

       1A    -20.607133     2A    -20.595424     3A    -20.594690
       4A    -20.593840     5A    -20.591620     6A    -20.586679
       7A     -1.390317     8A     -1.384405     9A     -1.372960
      10A     -1.368650    11A     -1.368175    12A     -1.351314
      13A     -0.764435    14A     -0.756646    15A     -0.752167
      16A     -0.730429    17A     -0.726388    18A     -0.708437
      19A     -0.617867    20A     -0.615234    21A     -0.609374
      22A     -0.603136    23A     -0.599301    24A     -0.586987
      25A     -0.551456    26A     -0.541843    27A     -0.533609
      28A     -0.531708    29A     -0.524032    30A     -0.521151

  @DF-RHF Final Energy:  -456.31536496723675

   => Energetics <=

    Nuclear Repulsion Energy =            251.9471923841938690
    One-Electron Energy =               -1130.3662977014662374
    Two-Electron Energy =                 422.1037403500356504
    Total Energy =                       -456.3153649672367465
 Dipole X            :         35.8201562          -36.3413779           -0.5212217
 Dipole Y            :         33.3383154          -33.4139729           -0.0756575
 Dipole Z            :          5.4784754           -4.4484096            1.0300657
 Magnitude           :                                                    1.1569060

    SAPT Results
  --------------------------------------------------------------------------------------------------------
    Electrostatics               -181.99415780 [mEh]    -114.20305819 [kcal/mol]    -477.82559547 [kJ/mol]
      Elst10,r                   -182.21451682 [mEh]    -114.34133556 [kcal/mol]    -478.40414799 [kJ/mol]
      Elst12,r                      0.22035902 [mEh]       0.13827737 [kcal/mol]       0.57855252 [kJ/mol]

    Exchange                      106.57341307 [mEh]      66.87582635 [kcal/mol]     279.80845746 [kJ/mol]
      Exch10                       78.37223840 [mEh]      49.17932208 [kcal/mol]     205.76628357 [kJ/mol]
      Exch10(S^2)                  79.52148493 [mEh]      49.90048516 [kcal/mol]     208.78362992 [kJ/mol]
      Exch11(S^2)                   2.04111505 [mEh]       1.28081903 [kcal/mol]       5.35894683 [kJ/mol]
      Exch12(S^2)                  26.16005962 [mEh]      16.41568524 [kcal/mol]      68.68322706 [kJ/mol]

    Induction                     -64.57633609 [mEh]     -40.52226268 [kcal/mol]    -169.54514704 [kJ/mol]
      Ind20,r                     -68.79394190 [mEh]     -43.16885028 [kcal/mol]    -180.61846959 [kJ/mol]
      Ind22                       -15.87511659 [mEh]      -9.96178606 [kcal/mol]     -41.68011288 [kJ/mol]
      Exch-Ind20,r                 21.02235596 [mEh]      13.19172752 [kcal/mol]      55.19418796 [kJ/mol]
      Exch-Ind22                    4.85118809 [mEh]       3.04416649 [kcal/mol]      12.73679259 [kJ/mol]
      delta HF,r (2)               -5.78082164 [mEh]      -3.62752035 [kcal/mol]     -15.17754512 [kJ/mol]

    Dispersion                    -34.27855707 [mEh]     -21.51011931 [kcal/mol]     -89.99833918 [kJ/mol]
      Disp20                      -32.15773727 [mEh]     -20.17928479 [kcal/mol]     -84.43012757 [kJ/mol]
      Disp21                        0.65578075 [mEh]       0.41150864 [kcal/mol]       1.72175213 [kJ/mol]
      Disp22 (SDQ)                 -4.07965402 [mEh]      -2.56002155 [kcal/mol]     -10.71113017 [kJ/mol]
      Disp22 (T)                   -6.14701241 [mEh]      -3.85730852 [kcal/mol]     -16.13897885 [kJ/mol]
      Est. Disp22 (T)              -7.13620805 [mEh]      -4.47803816 [kcal/mol]     -18.73611166 [kJ/mol]
      Exch-Disp20                   8.43926152 [mEh]       5.29571656 [kcal/mol]      22.15727808 [kJ/mol]

  Total HF                       -157.39468601 [mEh]     -98.76665659 [kcal/mol]    -413.23969118 [kJ/mol]
  Total SAPT0                    -181.11316175 [mEh]    -113.65022482 [kcal/mol]    -475.51254066 [kJ/mol]
  Total SAPT2                    -163.71555656 [mEh]    -102.73306275 [kcal/mol]    -429.83513454 [kJ/mol]
  Total SAPT2+                   -174.27563789 [mEh]    -109.35961382 [kcal/mol]    -457.56062423 [kJ/mol]

  Special recipe for scaled SAPT0 (see Manual):
    Electrostatics sSAPT0        -182.21451682 [mEh]    -114.34133556 [kcal/mol]    -478.40414799 [kJ/mol]
    Exchange sSAPT0                78.37223840 [mEh]      49.17932208 [kcal/mol]     205.76628357 [kJ/mol]
    Induction sSAPT0              -54.45074566 [mEh]     -34.16835876 [kcal/mol]    -142.96041305 [kJ/mol]
    Dispersion sSAPT0             -24.07910659 [mEh]     -15.10986750 [kcal/mol]     -63.21968564 [kJ/mol]
  Total sSAPT0                   -182.37213067 [mEh]    -114.44023975 [kcal/mol]    -478.81796311 [kJ/mol]
  --------------------------------------------------------------------------------------------------------

*** Psi4 exiting successfully. Buy a developer a beer!
