                               Psi4 1.8.2 release

  ==> Input File <==

--------------------------------------------------------------------------
MEMORY 60 GB

molecule dimer {
-1 1
F      0.000000     0.000000     0.000000
--
0 1
O     -1.815093    -1.909151    -1.378201
H     -1.403991    -2.276259    -2.165990
H     -1.261117    -1.228137    -1.060890
O     -2.290972     1.058239     1.136022
H     -1.623090     0.540782     0.668743
H     -1.945953     1.955729     1.153331
O      0.991195     2.121049     1.492154
H      0.917310     1.817853     2.425342
H      0.600819     1.313217     1.073674
O      0.163617    -2.054169     1.849337
H     -0.065307    -1.308779     1.260088
H     -0.495621    -2.762095     1.646170

units ang
no_reorient
no_com
symmetry c1
}

set {
basis        aug-cc-pVTZ
scf_type     df
}

energy("sapt2+")
--------------------------------------------------------------------------

  //              Dimer HF             //
    Molecular point group: c1
  Charge       = -1
  Multiplicity = 1
  Basis Set: AUG-CC-PVTZ
    Blend: AUG-CC-PVTZ
  Basis Set: (AUG-CC-PVTZ AUX)
    Blend: AUG-CC-PVTZ-JKFIT
  @DF-RHF Final Energy:  -403.78797823191007
    Total Energy =                       -403.7879782319100741
 Dipole X            :         55.3696708          -54.5884695            0.7812014
 Dipole Y            :         15.3430078          -15.5334448           -0.1904370
 Dipole Z            :        -57.6408035           56.3043219           -1.3364817
 Magnitude           :                                                    1.5597195
  //            Monomer A HF           //
    Molecular point group: c1
  Multiplicity = 1
  Basis Set: AUG-CC-PVTZ
    Blend: AUG-CC-PVTZ
  Basis Set: (AUG-CC-PVTZ AUX)
    Blend: AUG-CC-PVTZ-JKFIT
  @DF-RHF Final Energy:   -99.45105322641342
    Total Energy =                        -99.4510532264134213
  //            Monomer B HF           //
    Molecular point group: c1

    Geometry (in Angstrom), charge = 0, multiplicity = 1:

       Center              X                  Y                   Z               Mass
    ------------   -----------------  -----------------  -----------------  -----------------
      Gh(F)           0.000000000000     0.000000000000     0.000000000000    18.998403162730
         O           -1.815093000000    -1.909151000000    -1.378201000000    15.994914619570
         H           -1.403991000000    -2.276259000000    -2.165990000000     1.007825032230
         H           -1.261117000000    -1.228137000000    -1.060890000000     1.007825032230
         O           -2.290972000000     1.058239000000     1.136022000000    15.994914619570
         H           -1.623090000000     0.540782000000     0.668743000000     1.007825032230
         H           -1.945953000000     1.955729000000     1.153331000000     1.007825032230
         O            0.991195000000     2.121049000000     1.492154000000    15.994914619570
         H            0.917310000000     1.817853000000     2.425342000000     1.007825032230
         H            0.600819000000     1.313217000000     1.073674000000     1.007825032230
         O            0.163617000000    -2.054169000000     1.849337000000    15.994914619570
         H           -0.065307000000    -1.308779000000     1.260088000000     1.007825032230
         H           -0.495621000000    -2.762095000000     1.646170000000     1.007825032230

  Charge       = 0
  Multiplicity = 1
  Basis Set: AUG-CC-PVTZ
    Blend: AUG-CC-PVTZ
  Basis Set: (AUG-CC-PVTZ AUX)
    Blend: AUG-CC-PVTZ-JKFIT

    Orbital Energies [Eh]
    ---------------------

    Doubly Occupied:

       1A    -20.593264     2A    -20.586353     3A    -20.585959
       4A    -20.585041     5A     -1.379136     6A     -1.367475
       7A     -1.361477     8A     -1.354782     9A     -0.753319
      10A     -0.732891    11A     -0.720604    12A     -0.705292
      13A     -0.612939    14A     -0.602238    15A     -0.597694
      16A     -0.592739    17A     -0.532507    18A     -0.530767
      19A     -0.523812    20A     -0.521237

  @DF-RHF Final Energy:  -304.22639052714845

   => Energetics <=

    Nuclear Repulsion Energy =            116.0800640845523191
    One-Electron Energy =                -650.1338565718504015
    Two-Electron Energy =                 229.8274019601496718
    Total Energy =                       -304.2263905271483964
 Dipole X            :         54.9671018          -54.5884695            0.3786323
 Dipole Y            :         15.2967197          -15.5334448           -0.2367251
 Dipole Z            :        -57.0557280           56.3043219           -0.7514061
 Magnitude           :                                                    0.8740780

    SAPT Results
  --------------------------------------------------------------------------------------------------------
    Electrostatics               -127.22142564 [mEh]     -79.83264986 [kcal/mol]    -334.01980701 [kJ/mol]
      Elst10,r                   -126.83305595 [mEh]     -79.58894420 [kcal/mol]    -333.00014253 [kJ/mol]
      Elst12,r                     -0.38836969 [mEh]      -0.24370566 [kcal/mol]      -1.01966448 [kJ/mol]

    Exchange                       78.89115162 [mEh]      49.50494504 [kcal/mol]     207.12869005 [kJ/mol]
      Exch10                       59.41551902 [mEh]      37.28380107 [kcal/mol]     155.99542370 [kJ/mol]
      Exch10(S^2)                  59.63868539 [mEh]      37.42384008 [kcal/mol]     156.58134691 [kJ/mol]
      Exch11(S^2)                   0.97805722 [mEh]       0.61374017 [kcal/mol]       2.56788889 [kJ/mol]
      Exch12(S^2)                  18.49757538 [mEh]      11.60740379 [kcal/mol]      48.56537747 [kJ/mol]

    Induction                     -51.12325174 [mEh]     -32.08032480 [kcal/mol]    -134.22407894 [kJ/mol]
      Ind20,r                     -53.12149395 [mEh]     -33.33424072 [kcal/mol]    -139.47046316 [kJ/mol]
      Ind22                       -11.98225997 [mEh]      -7.51898165 [kcal/mol]     -31.45941922 [kJ/mol]
      Exch-Ind20,r                 17.62675703 [mEh]      11.06095703 [kcal/mol]      46.27904421 [kJ/mol]
      Exch-Ind22                    3.97594965 [mEh]       2.49494607 [kcal/mol]      10.43885436 [kJ/mol]
      delta HF,r (2)               -7.62220449 [mEh]      -4.78300553 [kcal/mol]     -20.01209514 [kJ/mol]

    Dispersion                    -23.55520593 [mEh]     -14.78111488 [kcal/mol]     -61.84418465 [kJ/mol]
      Disp20                      -22.21881444 [mEh]     -13.94251655 [kcal/mol]     -58.33548926 [kJ/mol]
      Disp21                        0.34065705 [mEh]       0.21376553 [kcal/mol]       0.89439497 [kJ/mol]
      Disp22 (SDQ)                 -2.68362404 [mEh]      -1.68399951 [kcal/mol]      -7.04585395 [kJ/mol]
      Disp22 (T)                   -4.10607097 [mEh]      -2.57659843 [kcal/mol]     -10.78048785 [kJ/mol]
      Est. Disp22 (T)              -4.83349263 [mEh]      -3.03306242 [kcal/mol]     -12.69033315 [kJ/mol]
      Exch-Disp20                   5.84006812 [mEh]       3.66469807 [kcal/mol]      15.33309674 [kJ/mol]

  Total HF                       -110.53447835 [mEh]     -69.36143234 [kcal/mol]    -290.20823292 [kJ/mol]
  Total SAPT0                    -126.91322466 [mEh]     -79.63925082 [kcal/mol]    -333.21062544 [kJ/mol]
  Total SAPT2                    -115.83227207 [mEh]     -72.68584809 [kcal/mol]    -304.11758842 [kJ/mol]
  Total SAPT2+                   -123.00873168 [mEh]     -77.18914449 [kcal/mol]    -322.95938054 [kJ/mol]

  Special recipe for scaled SAPT0 (see Manual):
    Electrostatics sSAPT0        -126.83305595 [mEh]     -79.58894420 [kcal/mol]    -333.00014253 [kJ/mol]
    Exchange sSAPT0                59.41551902 [mEh]      37.28380107 [kcal/mol]     155.99542370 [kJ/mol]
    Induction sSAPT0              -43.31407845 [mEh]     -27.17999458 [kcal/mol]    -113.72109731 [kJ/mol]
    Dispersion sSAPT0             -16.44406143 [mEh]     -10.31880434 [kcal/mol]     -43.17387734 [kJ/mol]
  Total sSAPT0                   -127.17567682 [mEh]     -79.80394204 [kcal/mol]    -333.89969348 [kJ/mol]
  --------------------------------------------------------------------------------------------------------

*** Psi4 exiting successfully. Buy a developer a beer!
