                               Psi4 1.8.2 release

  ==> Input File <==

--------------------------------------------------------------------------
MEMORY 60 GB

molecule dimer {
-1 1
F      0.000000     0.000000     0.000000
--
0 1
O     -1.206754     1.445995    -2.000126
H     -0.743175     0.893122    -1.337335
H     -0.759524     1.330264    -2.863753
O      1.095483    -0.322767     2.616674
H      0.673548    -0.212929     1.764286
H      0.520481     0.121453     3.208852
O     -2.290620    -0.209671     1.348500
H     -2.963418    -0.750440     0.872484
H     -1.471779    -0.213731     0.855990
O      0.125449     2.911282     1.072482
H     -0.291998     2.122485     1.520867
H      0.238880     2.637426     0.191158
O      0.042032    -2.844174    -0.084119
H     -0.661379    -3.010993     0.545538
H      0.052740    -1.870059    -0.098146
O      2.622328     0.650013    -0.846197
H      1.754348     0.759921    -0.394475
H      2.674742     1.478542    -1.440090

units ang
no_reorient
no_com
symmetry c1
}

set {
basis        aug-cc-pVTZ
scf_type     df
}

energy("sapt2+")
--------------------------------------------------------------------------

  //              Dimer HF             //
    Molecular point group: c1
  Charge       = -1
  Multiplicity = 1
  Basis Set: AUG-CC-PVTZ
    Blend: AUG-CC-PVTZ
  Basis Set: (AUG-CC-PVTZ AUX)
    Blend: AUG-CC-PVTZ-JKFIT
  @DF-RHF Final Energy:  -555.92548693677452
    Total Energy =                       -555.9254869367745187
 Dipole X            :         -5.0177213            4.0190884           -0.9986329
 Dipole Y            :        -30.9510211           30.8601441           -0.0908769
 Dipole Z            :        -38.2423202           37.1956456           -1.0466746
 Magnitude           :                                                    1.4495013
  //            Monomer A HF           //
    Molecular point group: c1
  Multiplicity = 1
  Basis Set: AUG-CC-PVTZ
    Blend: AUG-CC-PVTZ
  Basis Set: (AUG-CC-PVTZ AUX)
    Blend: AUG-CC-PVTZ-JKFIT
  @DF-RHF Final Energy:   -99.45114453517081
    Total Energy =                        -99.4511445351708119
  //            Monomer B HF           //
    Molecular point group: c1

    Geometry (in Angstrom), charge = 0, multiplicity = 1:

       Center              X                  Y                   Z               Mass
    ------------   -----------------  -----------------  -----------------  -----------------
      Gh(F)           0.000000000000     0.000000000000     0.000000000000    18.998403162730
         O           -1.206754000000     1.445995000000    -2.000126000000    15.994914619570
         H           -0.743175000000     0.893122000000    -1.337335000000     1.007825032230
         H           -0.759524000000     1.330264000000    -2.863753000000     1.007825032230
         O            1.095483000000    -0.322767000000     2.616674000000    15.994914619570
         H            0.673548000000    -0.212929000000     1.764286000000     1.007825032230
         H            0.520481000000     0.121453000000     3.208852000000     1.007825032230
         O           -2.290620000000    -0.209671000000     1.348500000000    15.994914619570
         H           -2.963418000000    -0.750440000000     0.872484000000     1.007825032230
         H           -1.471779000000    -0.213731000000     0.855990000000     1.007825032230
         O            0.125449000000     2.911282000000     1.072482000000    15.994914619570
         H           -0.291998000000     2.122485000000     1.520867000000     1.007825032230
         H            0.238880000000     2.637426000000     0.191158000000     1.007825032230
         O            0.042032000000    -2.844174000000    -0.084119000000    15.994914619570
         H           -0.661379000000    -3.010993000000     0.545538000000     1.007825032230
         H            0.052740000000    -1.870059000000    -0.098146000000     1.007825032230
         O            2.622328000000     0.650013000000    -0.846197000000    15.994914619570
         H            1.754348000000     0.759921000000    -0.394475000000     1.007825032230
         H            2.674742000000     1.478542000000    -1.440090000000     1.007825032230

  Charge       = 0
  Multiplicity = 1
  Basis Set: AUG-CC-PVTZ
    Blend: AUG-CC-PVTZ
  Basis Set: (AUG-CC-PVTZ AUX)
    Blend: AUG-CC-PVTZ-JKFIT

    Orbital Energies [Eh]
    ---------------------

    Doubly Occupied:

       1A    -20.610497     2A    -20.607292     3A    -20.598964
       4A    -20.591384     5A    -20.588232     6A    -20.587163
       7A     -1.387679     8A     -1.380631     9A     -1.377754
      10A     -1.371948    11A     -1.371432    12A     -1.355695
      13A     -0.766249    14A     -0.751217    15A     -0.743617
      16A     -0.733296    17A     -0.726339    18A     -0.713604
      19A     -0.618497    20A     -0.611584    21A     -0.609649
      22A     -0.606584    23A     -0.602411    24A     -0.598311
      25A     -0.550821    26A     -0.544840    27A     -0.535048
      28A     -0.530484    29A     -0.528435    30A     -0.525595

  @DF-RHF Final Energy:  -456.32662346624306

   => Energetics <=

    Nuclear Repulsion Energy =            249.1319581137867090
    One-Electron Energy =               -1124.6666538722365658
    Two-Electron Energy =                 419.2080722922067935
    Total Energy =                       -456.3266234662430634
 Dipole X            :         -5.1738404            4.0190884           -1.1547520
 Dipole Y            :        -30.8756099           30.8601441           -0.0154658
 Dipole Z            :        -38.0776688           37.1956456           -0.8820232
 Magnitude           :                                                    1.4531539

    SAPT Results
  --------------------------------------------------------------------------------------------------------
    Electrostatics               -176.83570964 [mEh]    -110.96608310 [kcal/mol]    -464.28209169 [kJ/mol]
      Elst10,r                   -176.46986832 [mEh]    -110.73651421 [kcal/mol]    -463.32157545 [kJ/mol]
      Elst12,r                     -0.36584132 [mEh]      -0.22956889 [kcal/mol]      -0.96051625 [kJ/mol]

    Exchange                      111.28136293 [mEh]      69.83010949 [kcal/mol]     292.16917811 [kJ/mol]
      Exch10                       83.02508310 [mEh]      52.09902621 [kcal/mol]     217.98232565 [kJ/mol]
      Exch10(S^2)                  84.06153463 [mEh]      52.74940936 [kcal/mol]     220.70352877 [kJ/mol]
      Exch11(S^2)                   1.66703966 [mEh]       1.04608318 [kcal/mol]       4.37681202 [kJ/mol]
      Exch12(S^2)                  26.58924017 [mEh]      16.68500011 [kcal/mol]      69.81004045 [kJ/mol]

    Induction                     -65.42014894 [mEh]     -41.05176324 [kcal/mol]    -171.76057738 [kJ/mol]
      Ind20,r                     -70.84127286 [mEh]     -44.45356985 [kcal/mol]    -185.99373626 [kJ/mol]
      Ind22                       -16.54674484 [mEh]     -10.38323915 [kcal/mol]     -43.44347260 [kJ/mol]
      Exch-Ind20,r                 23.12211421 [mEh]      14.50934572 [kcal/mol]      60.70710250 [kJ/mol]
      Exch-Ind22                    5.40074604 [mEh]       3.38901931 [kcal/mol]      14.17965678 [kJ/mol]
      delta HF,r (2)               -6.55499149 [mEh]      -4.11331926 [kcal/mol]     -17.21012779 [kJ/mol]

    Dispersion                    -34.49177881 [mEh]     -21.64391797 [kcal/mol]     -90.55815278 [kJ/mol]
      Disp20                      -32.55689927 [mEh]     -20.42976273 [kcal/mol]     -85.47812725 [kJ/mol]
      Disp21                        0.67952657 [mEh]       0.42640936 [kcal/mol]       1.78409677 [kJ/mol]
      Disp22 (SDQ)                 -4.06520504 [mEh]      -2.55095467 [kcal/mol]     -10.67319435 [kJ/mol]
      Disp22 (T)                   -6.12656209 [mEh]      -3.84447575 [kcal/mol]     -16.08528656 [kJ/mol]
      Est. Disp22 (T)              -7.12556587 [mEh]      -4.47136009 [kcal/mol]     -18.70817062 [kJ/mol]
      Exch-Disp20                   8.57636480 [mEh]       5.38175016 [kcal/mol]      22.51724267 [kJ/mol]

  Total HF                       -147.71893536 [mEh]     -92.69503140 [kcal/mol]    -387.83601136 [kJ/mol]
  Total SAPT0                    -171.69946983 [mEh]    -107.74304396 [kcal/mol]    -450.79689593 [kJ/mol]
  Total SAPT2                    -154.95503012 [mEh]     -97.23574941 [kcal/mol]    -406.83437553 [kJ/mol]
  Total SAPT2+                   -165.46627446 [mEh]    -103.83165481 [kcal/mol]    -434.43164374 [kJ/mol]

  Special recipe for scaled SAPT0 (see Manual):
    Electrostatics sSAPT0        -176.46986832 [mEh]    -110.73651421 [kcal/mol]    -463.32157545 [kJ/mol]
    Exchange sSAPT0                83.02508310 [mEh]      52.09902621 [kcal/mol]     217.98232565 [kJ/mol]
    Induction sSAPT0              -55.11891291 [mEh]     -34.58764004 [kcal/mol]    -144.71468591 [kJ/mol]
    Dispersion sSAPT0             -24.29387060 [mEh]     -15.24463395 [kcal/mol]     -63.78354846 [kJ/mol]
  Total sSAPT0                   -172.85756873 [mEh]    -108.46976199 [kcal/mol]    -453.83748417 [kJ/mol]
  --------------------------------------------------------------------------------------------------------

*** Psi4 exiting successfully. Buy a developer a beer!
