                               Psi4 1.8.2 release

  ==> Input File <==

--------------------------------------------------------------------------
MEMORY 60 GB

molecule dimer {
-1 1
F      0.000000     0.000000     0.000000
--
0 1
O      0.705041     0.085824     2.845836
H      0.718042     0.221437     1.918408
H      1.585010     0.151425     3.189331
O      1.846277     0.095164    -2.146633
H      2.732713    -0.105605    -1.756703
H      1.254731     0.091480    -1.406651
O     -2.274277     0.593945    -1.273101
H     -2.701262    -0.233434    -0.967959
H     -1.360007     0.511388    -0.932384
O      1.896841    -1.872735     0.495161
H      1.093557    -1.387163     0.388915
H      2.667595    -1.391507     0.177125
O      1.052918     2.610822     1.020224
H      0.691159     1.833771     0.662648
H      1.468412     2.477073     1.892293

units ang
no_reorient
no_com
symmetry c1
}

set {
basis        aug-cc-pVTZ
scf_type     df
}

energy("sapt2+")
--------------------------------------------------------------------------

  //              Dimer HF             //
    Molecular point group: c1
  Charge       = -1
  Multiplicity = 1
  Basis Set: AUG-CC-PVTZ
    Blend: AUG-CC-PVTZ
  Basis Set: (AUG-CC-PVTZ AUX)
    Blend: AUG-CC-PVTZ-JKFIT
  @DF-RHF Final Energy:  -479.85215122662311
    Total Energy =                       -479.8521512266231070
 Dipole X            :        -63.4752928           64.1833195            0.7080267
 Dipole Y            :        -27.6550823           26.9721082           -0.6829740
 Dipole Z            :        -19.3688921           20.2142473            0.8453552
 Magnitude           :                                                    1.2970662
  //            Monomer A HF           //
    Molecular point group: c1
  Multiplicity = 1
  Basis Set: AUG-CC-PVTZ
    Blend: AUG-CC-PVTZ
  Basis Set: (AUG-CC-PVTZ AUX)
    Blend: AUG-CC-PVTZ-JKFIT
  @DF-RHF Final Energy:   -99.45110707396297
    Total Energy =                        -99.4511070739629730
  //            Monomer B HF           //
    Molecular point group: c1

    Geometry (in Angstrom), charge = 0, multiplicity = 1:

       Center              X                  Y                   Z               Mass
    ------------   -----------------  -----------------  -----------------  -----------------
      Gh(F)           0.000000000000     0.000000000000     0.000000000000    18.998403162730
         O            0.705041000000     0.085824000000     2.845836000000    15.994914619570
         H            0.718042000000     0.221437000000     1.918408000000     1.007825032230
         H            1.585010000000     0.151425000000     3.189331000000     1.007825032230
         O            1.846277000000     0.095164000000    -2.146633000000    15.994914619570
         H            2.732713000000    -0.105605000000    -1.756703000000     1.007825032230
         H            1.254731000000     0.091480000000    -1.406651000000     1.007825032230
         O           -2.274277000000     0.593945000000    -1.273101000000    15.994914619570
         H           -2.701262000000    -0.233434000000    -0.967959000000     1.007825032230
         H           -1.360007000000     0.511388000000    -0.932384000000     1.007825032230
         O            1.896841000000    -1.872735000000     0.495161000000    15.994914619570
         H            1.093557000000    -1.387163000000     0.388915000000     1.007825032230
         H            2.667595000000    -1.391507000000     0.177125000000     1.007825032230
         O            1.052918000000     2.610822000000     1.020224000000    15.994914619570
         H            0.691159000000     1.833771000000     0.662648000000     1.007825032230
         H            1.468412000000     2.477073000000     1.892293000000     1.007825032230

  Charge       = 0
  Multiplicity = 1
  Basis Set: AUG-CC-PVTZ
    Blend: AUG-CC-PVTZ
  Basis Set: (AUG-CC-PVTZ AUX)
    Blend: AUG-CC-PVTZ-JKFIT

    Orbital Energies [Eh]
    ---------------------

    Doubly Occupied:

       1A    -20.597610     2A    -20.595809     3A    -20.589254
       4A    -20.587042     5A    -20.585104     6A     -1.388931
       7A     -1.385125     8A     -1.374902     9A     -1.373675
      10A     -1.358137    11A     -0.774522    12A     -0.766040
      13A     -0.758212    14A     -0.738882    15A     -0.718002
      16A     -0.618877    17A     -0.610865    18A     -0.597061
      19A     -0.594413    20A     -0.588134    21A     -0.548843
      22A     -0.535299    23A     -0.532509    24A     -0.526463
      25A     -0.523197

  @DF-RHF Final Energy:  -380.27250882114703

   => Energetics <=

    Nuclear Repulsion Energy =            178.4530959193164108
    One-Electron Energy =                -878.9173883182543250
    Two-Electron Energy =                 320.1917835777908863
    Total Energy =                       -380.2725088211470279
 Dipole X            :        -63.0730090           64.1833195            1.1103106
 Dipole Y            :        -27.5552322           26.9721082           -0.5831240
 Dipole Z            :        -19.3692415           20.2142473            0.8450058
 Magnitude           :                                                    1.5122361

    SAPT Results
  --------------------------------------------------------------------------------------------------------
    Electrostatics               -152.93602203 [mEh]     -95.96880270 [kcal/mol]    -401.53347052 [kJ/mol]
      Elst10,r                   -152.25114167 [mEh]     -95.53903379 [kcal/mol]    -399.73531739 [kJ/mol]
      Elst12,r                     -0.68488036 [mEh]      -0.42976891 [kcal/mol]      -1.79815313 [kJ/mol]

    Exchange                       93.74477054 [mEh]      58.82573163 [kcal/mol]     246.12686115 [kJ/mol]
      Exch10                       70.22459875 [mEh]      44.06660101 [kcal/mol]     184.37465862 [kJ/mol]
      Exch10(S^2)                  70.64387865 [mEh]      44.32970312 [kcal/mol]     185.47547784 [kJ/mol]
      Exch11(S^2)                   1.14994580 [mEh]       0.72160188 [kcal/mol]       3.01918227 [kJ/mol]
      Exch12(S^2)                  22.37022600 [mEh]      14.03752874 [kcal/mol]      58.73302026 [kJ/mol]

    Induction                     -55.97973711 [mEh]     -35.12781538 [kcal/mol]    -146.97477954 [kJ/mol]
      Ind20,r                     -61.04308948 [mEh]     -38.30511696 [kcal/mol]    -160.26860935 [kJ/mol]
      Ind22                       -14.47046293 [mEh]      -9.08035258 [kcal/mol]     -37.99219519 [kJ/mol]
      Exch-Ind20,r                 21.09025863 [mEh]      13.23433709 [kcal/mol]      55.37246639 [kJ/mol]
      Exch-Ind22                    4.99951441 [mEh]       3.13724266 [kcal/mol]      13.12622328 [kJ/mol]
      delta HF,r (2)               -6.55595774 [mEh]      -4.11392559 [kcal/mol]     -17.21266467 [kJ/mol]

    Dispersion                    -28.31009918 [mEh]     -17.76485544 [kcal/mol]     -74.32815516 [kJ/mol]
      Disp20                      -26.72653920 [mEh]     -16.77115655 [kcal/mol]     -70.17051902 [kJ/mol]
      Disp21                        0.42655393 [mEh]       0.26766663 [kcal/mol]       1.11991718 [kJ/mol]
      Disp22 (SDQ)                 -3.32375018 [mEh]      -2.08568472 [kcal/mol]      -8.72650489 [kJ/mol]
      Disp22 (T)                   -4.93740807 [mEh]      -3.09827034 [kcal/mol]     -12.96316311 [kJ/mol]
      Est. Disp22 (T)              -5.80283837 [mEh]      -3.64133605 [kcal/mol]     -15.23535005 [kJ/mol]
      Exch-Disp20                   7.11647465 [mEh]       4.46565526 [kcal/mol]      18.68430161 [kJ/mol]

  Total HF                       -128.53533151 [mEh]     -80.65713824 [kcal/mol]    -337.46946639 [kJ/mol]
  Total SAPT0                    -148.14539607 [mEh]     -92.96263953 [kcal/mol]    -388.95568380 [kJ/mol]
  Total SAPT2                    -134.78105316 [mEh]     -84.57638774 [kcal/mol]    -353.86760631 [kJ/mol]
  Total SAPT2+                   -143.48108778 [mEh]     -90.03574189 [kcal/mol]    -376.70954406 [kJ/mol]

  Special recipe for scaled SAPT0 (see Manual):
    Electrostatics sSAPT0        -152.25114167 [mEh]     -95.53903379 [kcal/mol]    -399.73531739 [kJ/mol]
    Exchange sSAPT0                70.22459875 [mEh]      44.06660101 [kcal/mol]     184.37465862 [kJ/mol]
    Induction sSAPT0              -46.88208390 [mEh]     -29.41895180 [kcal/mol]    -123.08889431 [kJ/mol]
    Dispersion sSAPT0             -19.73602539 [mEh]     -12.38454291 [kcal/mol]     -51.81692753 [kJ/mol]
  Total sSAPT0                   -148.64465221 [mEh]     -93.27592749 [kcal/mol]    -390.26648061 [kJ/mol]
  --------------------------------------------------------------------------------------------------------

*** Psi4 exiting successfully. Buy a developer a beer!
