                               Psi4 1.8.2 release

  ==> Input File <==

--------------------------------------------------------------------------
MEMORY 60 GB

molecule dimer {
-1 1
F      0.000000     0.000000     0.000000
--
0 1
O     -1.260900    -2.254512    -1.019552
H     -2.116647    -1.981406    -1.460657
H     -0.886299    -1.461259    -0.624048
O      0.797432    -1.918530     2.094916
H      0.760946    -1.157874     1.509449
H      0.725951    -1.582356     2.998300
O      2.111783     1.327632     1.753854
H      2.614097     1.583631     2.486238
H      1.329987     0.996826     2.201141
O     -2.174612     1.324090     1.166663
H     -1.510760     0.876909     0.680206
H     -1.789404     1.445993     2.012538
O     -1.021032     0.928373    -2.325044
H     -0.460450     0.648507    -1.601012
H     -1.318384     0.178931    -2.852340
O      0.841089     2.518421    -0.309383
H      0.478528     1.619902    -0.303863
H      1.276908     2.576825     0.587759

units ang
no_reorient
no_com
symmetry c1
}

set {
basis        aug-cc-pVTZ
scf_type     df
}

energy("sapt2+")
--------------------------------------------------------------------------

  //              Dimer HF             //
    Molecular point group: c1
  Charge       = -1
  Multiplicity = 1
  Basis Set: AUG-CC-PVTZ
    Blend: AUG-CC-PVTZ
  Basis Set: (AUG-CC-PVTZ AUX)
    Blend: AUG-CC-PVTZ-JKFIT
  @DF-RHF Final Energy:  -555.90222701071286
    Total Energy =                       -555.9022270107128634
 Dipole X            :         13.1586139          -12.3691022            0.7895117
 Dipole Y            :        -36.5353079           36.1852714           -0.3500365
 Dipole Z            :        -29.2611962           31.2283724            1.9671762
 Magnitude           :                                                    2.1484032
  //            Monomer A HF           //
    Molecular point group: c1
  Multiplicity = 1
  Basis Set: AUG-CC-PVTZ
    Blend: AUG-CC-PVTZ
  Basis Set: (AUG-CC-PVTZ AUX)
    Blend: AUG-CC-PVTZ-JKFIT
  @DF-RHF Final Energy:   -99.45113794257730
    Total Energy =                        -99.4511379425773043
  //            Monomer B HF           //
    Molecular point group: c1

    Geometry (in Angstrom), charge = 0, multiplicity = 1:

       Center              X                  Y                   Z               Mass
    ------------   -----------------  -----------------  -----------------  -----------------
      Gh(F)           0.000000000000     0.000000000000     0.000000000000    18.998403162730
         O           -1.260900000000    -2.254512000000    -1.019552000000    15.994914619570
         H           -2.116647000000    -1.981406000000    -1.460657000000     1.007825032230
         H           -0.886299000000    -1.461259000000    -0.624048000000     1.007825032230
         O            0.797432000000    -1.918530000000     2.094916000000    15.994914619570
         H            0.760946000000    -1.157874000000     1.509449000000     1.007825032230
         H            0.725951000000    -1.582356000000     2.998300000000     1.007825032230
         O            2.111783000000     1.327632000000     1.753854000000    15.994914619570
         H            2.614097000000     1.583631000000     2.486238000000     1.007825032230
         H            1.329987000000     0.996826000000     2.201141000000     1.007825032230
         O           -2.174612000000     1.324090000000     1.166663000000    15.994914619570
         H           -1.510760000000     0.876909000000     0.680206000000     1.007825032230
         H           -1.789404000000     1.445993000000     2.012538000000     1.007825032230
         O           -1.021032000000     0.928373000000    -2.325044000000    15.994914619570
         H           -0.460450000000     0.648507000000    -1.601012000000     1.007825032230
         H           -1.318384000000     0.178931000000    -2.852340000000     1.007825032230
         O            0.841089000000     2.518421000000    -0.309383000000    15.994914619570
         H            0.478528000000     1.619902000000    -0.303863000000     1.007825032230
         H            1.276908000000     2.576825000000     0.587759000000     1.007825032230

  Charge       = 0
  Multiplicity = 1
  Basis Set: AUG-CC-PVTZ
    Blend: AUG-CC-PVTZ
  Basis Set: (AUG-CC-PVTZ AUX)
    Blend: AUG-CC-PVTZ-JKFIT

    Orbital Energies [Eh]
    ---------------------

    Doubly Occupied:

       1A    -20.621006     2A    -20.594133     3A    -20.585995
       4A    -20.583914     5A    -20.578036     6A    -20.560662
       7A     -1.425288     8A     -1.384833     9A     -1.375593
      10A     -1.361865    11A     -1.355525    12A     -1.334114
      13A     -0.776551    14A     -0.753031    15A     -0.745755
      16A     -0.744192    17A     -0.724443    18A     -0.698840
      19A     -0.657078    20A     -0.609231    21A     -0.604606
      22A     -0.595620    23A     -0.589591    24A     -0.578090
      25A     -0.549723    26A     -0.534731    27A     -0.531613
      28A     -0.522572    29A     -0.519790    30A     -0.497862

  @DF-RHF Final Energy:  -456.32607149585959

   => Energetics <=

    Nuclear Repulsion Energy =            254.9895198406715622
    One-Electron Energy =               -1136.6426107822969698
    Two-Electron Energy =                 425.3270194457657567
    Total Energy =                       -456.3260714958595941
 Dipole X            :         12.8637277          -12.3691022            0.4946255
 Dipole Y            :        -36.2435015           36.1852714           -0.0582301
 Dipole Z            :        -29.2492674           31.2283724            1.9791050
 Magnitude           :                                                    2.0408091

    SAPT Results
  --------------------------------------------------------------------------------------------------------
    Electrostatics               -158.75337563 [mEh]     -99.61924720 [kcal/mol]    -416.80693030 [kJ/mol]
      Elst10,r                   -156.35381584 [mEh]     -98.11350070 [kcal/mol]    -410.50688694 [kJ/mol]
      Elst12,r                     -2.39955979 [mEh]      -1.50574650 [kcal/mol]      -6.30004337 [kJ/mol]

    Exchange                      112.74739078 [mEh]      70.75005586 [kcal/mol]     296.01823372 [kJ/mol]
      Exch10                       84.53858676 [mEh]      53.04876409 [kcal/mol]     221.95602896 [kJ/mol]
      Exch10(S^2)                  85.11924654 [mEh]      53.41313361 [kcal/mol]     223.48055101 [kJ/mol]
      Exch11(S^2)                   1.49083942 [mEh]       0.93551586 [kcal/mol]       3.91419837 [kJ/mol]
      Exch12(S^2)                  26.71796460 [mEh]      16.76577591 [kcal/mol]      70.14800640 [kJ/mol]

    Induction                     -64.29139065 [mEh]     -40.34345672 [kcal/mol]    -168.79702290 [kJ/mol]
      Ind20,r                     -70.82684782 [mEh]     -44.44451801 [kcal/mol]    -185.95586334 [kJ/mol]
      Ind22                       -17.09056584 [mEh]     -10.72449198 [kcal/mol]     -44.87127444 [kJ/mol]
      Exch-Ind20,r                 24.87153633 [mEh]      15.60712468 [kcal/mol]      65.30020964 [kJ/mol]
      Exch-Ind22                    6.00151838 [mEh]       3.76600964 [kcal/mol]      15.75698435 [kJ/mol]
      delta HF,r (2)               -7.24703170 [mEh]      -4.54758105 [kcal/mol]     -19.02707911 [kJ/mol]

    Dispersion                    -33.64545376 [mEh]     -21.11284098 [kcal/mol]     -88.33612668 [kJ/mol]
      Disp20                      -32.12488531 [mEh]     -20.15866988 [kcal/mol]     -84.34387477 [kJ/mol]
      Disp21                        0.86828515 [mEh]       0.54485716 [kcal/mol]       2.27968234 [kJ/mol]
      Disp22 (SDQ)                 -4.02735991 [mEh]      -2.52720650 [kcal/mol]     -10.57383198 [kJ/mol]
      Disp22 (T)                   -5.99119464 [mEh]      -3.75953140 [kcal/mol]     -15.72987937 [kJ/mol]
      Est. Disp22 (T)              -6.96505285 [mEh]      -4.37063665 [kcal/mol]     -18.28674374 [kJ/mol]
      Exch-Disp20                   8.60355916 [mEh]       5.39881488 [kcal/mol]      22.58864147 [kJ/mol]

  Total HF                       -125.01757228 [mEh]     -78.44971099 [kcal/mol]    -328.23359079 [kJ/mol]
  Total SAPT0                    -148.53889843 [mEh]     -93.20956599 [kcal/mol]    -389.98882409 [kJ/mol]
  Total SAPT2                    -133.81870165 [mEh]     -83.97250306 [kcal/mol]    -351.34095279 [kJ/mol]
  Total SAPT2+                   -143.94282926 [mEh]     -90.32548905 [kcal/mol]    -377.92184617 [kJ/mol]

  Special recipe for scaled SAPT0 (see Manual):
    Electrostatics sSAPT0        -156.35381584 [mEh]     -98.11350070 [kcal/mol]    -410.50688694 [kJ/mol]
    Exchange sSAPT0                84.53858676 [mEh]      53.04876409 [kcal/mol]     221.95602896 [kJ/mol]
    Induction sSAPT0              -53.70787891 [mEh]     -33.70220283 [kcal/mol]    -141.01001664 [kJ/mol]
    Dispersion sSAPT0             -23.69620101 [mEh]     -14.86959063 [kcal/mol]     -62.21436718 [kJ/mol]
  Total sSAPT0                   -149.21930900 [mEh]     -93.63653007 [kcal/mol]    -391.77524180 [kJ/mol]
  --------------------------------------------------------------------------------------------------------

*** Psi4 exiting successfully. Buy a developer a beer!
