                               Psi4 1.8.2 release

  ==> Input File <==

--------------------------------------------------------------------------
MEMORY 60 GB

molecule dimer {
-1 1
F      0.000000     0.000000     0.000000
--
0 1
O     -0.403439     1.183217     2.402459
H     -0.368174     0.518223     1.697033
H      0.232895     0.753495     2.947123
O      2.303742    -1.250421     0.525025
H      1.490227    -0.788707     0.531894
H      2.843314    -1.105727     1.310304
O     -2.398892     1.650841    -0.051992
H     -1.675125     0.929581     0.042817
H     -2.902495     1.553309     0.752774
O     -1.481475    -2.214462    -0.034526
H     -0.810065    -1.515855    -0.061717
H     -1.006129    -3.009721    -0.410769
O     -0.656255     0.245235    -2.745367
H     -0.053838    -0.438387    -3.118900
H     -0.449334     0.215360    -1.787135

units ang
no_reorient
no_com
symmetry c1
}

set {
basis        aug-cc-pVTZ
scf_type     df
}

energy("sapt2+")
--------------------------------------------------------------------------

  //              Dimer HF             //
    Molecular point group: c1
  Charge       = -1
  Multiplicity = 1
  Basis Set: AUG-CC-PVTZ
    Blend: AUG-CC-PVTZ
  Basis Set: (AUG-CC-PVTZ AUX)
    Blend: AUG-CC-PVTZ-JKFIT
  @DF-RHF Final Energy:  -479.84796480397267
    Total Energy =                       -479.8479648039726726
 Dipole X            :         46.8537767          -44.9552164            1.8985604
 Dipole Y            :         10.2117062          -11.2876157           -1.0759095
 Dipole Z            :         -3.9848764            5.0421975            1.0573211
 Magnitude           :                                                    2.4248795
  //            Monomer A HF           //
    Molecular point group: c1
  Multiplicity = 1
  Basis Set: AUG-CC-PVTZ
    Blend: AUG-CC-PVTZ
  Basis Set: (AUG-CC-PVTZ AUX)
    Blend: AUG-CC-PVTZ-JKFIT
  @DF-RHF Final Energy:   -99.45112325061720
    Total Energy =                        -99.4511232506172149
  //            Monomer B HF           //
    Molecular point group: c1

    Geometry (in Angstrom), charge = 0, multiplicity = 1:

       Center              X                  Y                   Z               Mass
    ------------   -----------------  -----------------  -----------------  -----------------
      Gh(F)           0.000000000000     0.000000000000     0.000000000000    18.998403162730
         O           -0.403439000000     1.183217000000     2.402459000000    15.994914619570
         H           -0.368174000000     0.518223000000     1.697033000000     1.007825032230
         H            0.232895000000     0.753495000000     2.947123000000     1.007825032230
         O            2.303742000000    -1.250421000000     0.525025000000    15.994914619570
         H            1.490227000000    -0.788707000000     0.531894000000     1.007825032230
         H            2.843314000000    -1.105727000000     1.310304000000     1.007825032230
         O           -2.398892000000     1.650841000000    -0.051992000000    15.994914619570
         H           -1.675125000000     0.929581000000     0.042817000000     1.007825032230
         H           -2.902495000000     1.553309000000     0.752774000000     1.007825032230
         O           -1.481475000000    -2.214462000000    -0.034526000000    15.994914619570
         H           -0.810065000000    -1.515855000000    -0.061717000000     1.007825032230
         H           -1.006129000000    -3.009721000000    -0.410769000000     1.007825032230
         O           -0.656255000000     0.245235000000    -2.745367000000    15.994914619570
         H           -0.053838000000    -0.438387000000    -3.118900000000     1.007825032230
         H           -0.449334000000     0.215360000000    -1.787135000000     1.007825032230

  Charge       = 0
  Multiplicity = 1
  Basis Set: AUG-CC-PVTZ
    Blend: AUG-CC-PVTZ
  Basis Set: (AUG-CC-PVTZ AUX)
    Blend: AUG-CC-PVTZ-JKFIT

    Orbital Energies [Eh]
    ---------------------

    Doubly Occupied:

       1A    -20.600439     2A    -20.598708     3A    -20.598187
       4A    -20.580076     5A    -20.571614     6A     -1.391725
       7A     -1.388013     8A     -1.367205     9A     -1.349121
      10A     -1.337196    11A     -0.777441    12A     -0.733015
      13A     -0.727226    14A     -0.710490    15A     -0.692754
      16A     -0.632902    17A     -0.607049    18A     -0.603791
      19A     -0.588983    20A     -0.577717    21A     -0.544631
      22A     -0.541643    23A     -0.534497    24A     -0.514658
      25A     -0.505254

  @DF-RHF Final Energy:  -380.26573281400249

   => Energetics <=

    Nuclear Repulsion Energy =            176.8431411236179827
    One-Electron Energy =                -876.0690694131168357
    Two-Electron Energy =                 318.9601954754963344
    Total Energy =                       -380.2657328140024902
 Dipole X            :         46.5310596          -44.9552164            1.5758432
 Dipole Y            :          9.9719157          -11.2876157           -1.3157001
 Dipole Z            :         -3.8877736            5.0421975            1.1544239
 Magnitude           :                                                    2.3552161

    SAPT Results
  --------------------------------------------------------------------------------------------------------
    Electrostatics               -164.92539786 [mEh]    -103.49224962 [kcal/mol]    -433.01157241 [kJ/mol]
      Elst10,r                   -163.39306655 [mEh]    -102.53069721 [kcal/mol]    -428.98843714 [kJ/mol]
      Elst12,r                     -1.53233130 [mEh]      -0.96155241 [kcal/mol]      -4.02313528 [kJ/mol]

    Exchange                      115.47374453 [mEh]      72.46086867 [kcal/mol]     303.17627450 [kJ/mol]
      Exch10                       87.64205922 [mEh]      54.99622246 [kcal/mol]     230.10419477 [kJ/mol]
      Exch10(S^2)                  88.59638064 [mEh]      55.59506819 [kcal/mol]     232.60976533 [kJ/mol]
      Exch11(S^2)                   1.50251572 [mEh]       0.94284285 [kcal/mol]       3.94485447 [kJ/mol]
      Exch12(S^2)                  26.32916960 [mEh]      16.52180336 [kcal/mol]      69.12722526 [kJ/mol]

    Induction                     -66.13690426 [mEh]     -41.50153399 [kcal/mol]    -173.64241820 [kJ/mol]
      Ind20,r                     -72.35127324 [mEh]     -45.40110940 [kcal/mol]    -189.95824172 [kJ/mol]
      Ind22                       -16.45965784 [mEh]     -10.32859123 [kcal/mol]     -43.21482570 [kJ/mol]
      Exch-Ind20,r                 24.96955705 [mEh]      15.66863361 [kcal/mol]      65.55756301 [kJ/mol]
      Exch-Ind22                    5.68048560 [mEh]       3.56455853 [kcal/mol]      14.91411288 [kJ/mol]
      delta HF,r (2)               -7.97601583 [mEh]      -5.00502550 [kcal/mol]     -20.94102668 [kJ/mol]

    Dispersion                    -33.13259953 [mEh]     -20.79102009 [kcal/mol]     -86.98962808 [kJ/mol]
      Disp20                      -31.94755726 [mEh]     -20.04739485 [kcal/mol]     -83.87830004 [kJ/mol]
      Disp21                        0.78193914 [mEh]       0.49067422 [kcal/mol]       2.05298092 [kJ/mol]
      Disp22 (SDQ)                 -3.74140490 [mEh]      -2.34776702 [kcal/mol]      -9.82305720 [kJ/mol]
      Disp22 (T)                   -5.91896473 [mEh]      -3.71420644 [kcal/mol]     -15.54023975 [kJ/mol]
      Est. Disp22 (T)              -6.85729426 [mEh]      -4.30301711 [kcal/mol]     -18.00382359 [kJ/mol]
      Exch-Disp20                   8.63171775 [mEh]       5.41648467 [kcal/mol]      22.66257184 [kJ/mol]

  Total HF                       -131.10873935 [mEh]     -82.27197604 [kcal/mol]    -344.22594775 [kJ/mol]
  Total SAPT0                    -154.42457886 [mEh]     -96.90288622 [kcal/mol]    -405.44167595 [kJ/mol]
  Total SAPT2                    -138.90439709 [mEh]     -87.16382512 [kcal/mol]    -364.69344432 [kJ/mol]
  Total SAPT2+                   -148.72115711 [mEh]     -93.32393504 [kcal/mol]    -390.46734420 [kJ/mol]

  Special recipe for scaled SAPT0 (see Manual):
    Electrostatics sSAPT0        -163.39306655 [mEh]    -102.53069721 [kcal/mol]    -428.98843714 [kJ/mol]
    Exchange sSAPT0                87.64205922 [mEh]      54.99622246 [kcal/mol]     230.10419477 [kJ/mol]
    Induction sSAPT0              -56.15595524 [mEh]     -35.23839392 [kcal/mol]    -147.43744016 [kJ/mol]
    Dispersion sSAPT0             -23.59177703 [mEh]     -14.80406359 [kcal/mol]     -61.94020205 [kJ/mol]
  Total sSAPT0                   -155.49873960 [mEh]     -97.57693226 [kcal/mol]    -408.26188458 [kJ/mol]
  --------------------------------------------------------------------------------------------------------

*** Psi4 exiting successfully. Buy a developer a beer!
