                               Psi4 1.8.2 release

  ==> Input File <==

--------------------------------------------------------------------------
MEMORY 60 GB

molecule dimer {
-1 1
F      0.000000     0.000000     0.000000
--
0 1
O     -2.514233    -0.838589    -0.868966
H     -2.777531    -0.864339    -1.789497
H     -1.566044    -0.593973    -0.828615
O     -0.782480     1.801604    -2.000038
H     -1.732362     1.945839    -1.851762
H     -0.584653     1.094475    -1.373167
O     -0.590907     2.720783     1.336329
H      0.319764     2.744529     0.971711
H     -0.949250     1.810129     1.212275
O      2.242812     1.445091    -0.026596
H      1.411790     1.013484    -0.212396
H      2.372371     1.996144    -0.840441
O      1.553258    -1.647504    -1.312027
H      1.527789    -2.312558    -0.611092
H      1.024731    -0.930018    -0.897315

units ang
no_reorient
no_com
symmetry c1
}

set {
basis        aug-cc-pVTZ
scf_type     df
}

energy("sapt2+")
--------------------------------------------------------------------------

  //              Dimer HF             //
    Molecular point group: c1
  Charge       = -1
  Multiplicity = 1
  Basis Set: AUG-CC-PVTZ
    Blend: AUG-CC-PVTZ
  Basis Set: (AUG-CC-PVTZ AUX)
    Blend: AUG-CC-PVTZ-JKFIT
  @DF-RHF Final Energy:  -479.85670633260077
    Total Energy =                       -479.8567063326007656
 Dipole X            :          2.6446108           -3.1856909           -0.5410801
 Dipole Y            :        -64.7252598           63.7873123           -0.9379475
 Dipole Z            :         55.3418915          -55.1623963            0.1794952
 Magnitude           :                                                    1.0976027
  //            Monomer A HF           //
    Molecular point group: c1
  Multiplicity = 1
  Basis Set: AUG-CC-PVTZ
    Blend: AUG-CC-PVTZ
  Basis Set: (AUG-CC-PVTZ AUX)
    Blend: AUG-CC-PVTZ-JKFIT
  @DF-RHF Final Energy:   -99.45111740545880
    Total Energy =                        -99.4511174054588025
  //            Monomer B HF           //
    Molecular point group: c1

    Geometry (in Angstrom), charge = 0, multiplicity = 1:

       Center              X                  Y                   Z               Mass
    ------------   -----------------  -----------------  -----------------  -----------------
      Gh(F)           0.000000000000     0.000000000000     0.000000000000    18.998403162730
         O           -2.514233000000    -0.838589000000    -0.868966000000    15.994914619570
         H           -2.777531000000    -0.864339000000    -1.789497000000     1.007825032230
         H           -1.566044000000    -0.593973000000    -0.828615000000     1.007825032230
         O           -0.782480000000     1.801604000000    -2.000038000000    15.994914619570
         H           -1.732362000000     1.945839000000    -1.851762000000     1.007825032230
         H           -0.584653000000     1.094475000000    -1.373167000000     1.007825032230
         O           -0.590907000000     2.720783000000     1.336329000000    15.994914619570
         H            0.319764000000     2.744529000000     0.971711000000     1.007825032230
         H           -0.949250000000     1.810129000000     1.212275000000     1.007825032230
         O            2.242812000000     1.445091000000    -0.026596000000    15.994914619570
         H            1.411790000000     1.013484000000    -0.212396000000     1.007825032230
         H            2.372371000000     1.996144000000    -0.840441000000     1.007825032230
         O            1.553258000000    -1.647504000000    -1.312027000000    15.994914619570
         H            1.527789000000    -2.312558000000    -0.611092000000     1.007825032230
         H            1.024731000000    -0.930018000000    -0.897315000000     1.007825032230

  Charge       = 0
  Multiplicity = 1
  Basis Set: AUG-CC-PVTZ
    Blend: AUG-CC-PVTZ
  Basis Set: (AUG-CC-PVTZ AUX)
    Blend: AUG-CC-PVTZ-JKFIT

    Orbital Energies [Eh]
    ---------------------

    Doubly Occupied:

       1A    -20.600777     2A    -20.599401     3A    -20.596762
       4A    -20.596185     5A    -20.573287     6A     -1.382220
       7A     -1.376290     8A     -1.375056     9A     -1.370891
      10A     -1.341943    11A     -0.754465    12A     -0.740901
      13A     -0.732475    14A     -0.721391    15A     -0.714127
      16A     -0.622795    17A     -0.613703    18A     -0.610592
      19A     -0.603394    20A     -0.579439    21A     -0.543563
      22A     -0.539106    23A     -0.537634    24A     -0.528185
      25A     -0.509268

  @DF-RHF Final Energy:  -380.27755334779749

   => Energetics <=

    Nuclear Repulsion Energy =            182.0422721998471616
    One-Electron Energy =                -886.3119501159185347
    Two-Electron Energy =                 323.9921245682738800
    Total Energy =                       -380.2775533477974932
 Dipole X            :          2.7695419           -3.1856909           -0.4161489
 Dipole Y            :        -64.4580231           63.7873123           -0.6707108
 Dipole Z            :         54.7125835          -55.1623963           -0.4498127
 Magnitude           :                                                    0.9084957

    SAPT Results
  --------------------------------------------------------------------------------------------------------
    Electrostatics               -160.67555965 [mEh]    -100.82543589 [kcal/mol]    -421.85362374 [kJ/mol]
      Elst10,r                   -159.54737190 [mEh]    -100.11748739 [kcal/mol]    -418.89156722 [kJ/mol]
      Elst12,r                     -1.12818775 [mEh]      -0.70794850 [kcal/mol]      -2.96205652 [kJ/mol]

    Exchange                      113.13373214 [mEh]      70.99248872 [kcal/mol]     297.03257282 [kJ/mol]
      Exch10                       86.32288325 [mEh]      54.16842704 [kcal/mol]     226.64069874 [kJ/mol]
      Exch10(S^2)                  86.69834547 [mEh]      54.40403314 [kcal/mol]     227.62647467 [kJ/mol]
      Exch11(S^2)                   1.48716418 [mEh]       0.93320961 [kcal/mol]       3.90454903 [kJ/mol]
      Exch12(S^2)                  25.32368471 [mEh]      15.89085207 [kcal/mol]      66.48732505 [kJ/mol]

    Induction                     -65.30562974 [mEh]     -40.97990135 [kcal/mol]    -171.45990725 [kJ/mol]
      Ind20,r                     -70.94352190 [mEh]     -44.51773209 [kcal/mol]    -186.26219108 [kJ/mol]
      Ind22                       -16.46114822 [mEh]     -10.32952646 [kcal/mol]     -43.21873869 [kJ/mol]
      Exch-Ind20,r                 25.71462591 [mEh]      16.13617137 [kcal/mol]      67.51374102 [kJ/mol]
      Exch-Ind22                    5.96660917 [mEh]       3.74410378 [kcal/mol]      15.66533022 [kJ/mol]
      delta HF,r (2)               -9.58219470 [mEh]      -6.01291796 [kcal/mol]     -25.15804872 [kJ/mol]

    Dispersion                    -31.63176439 [mEh]     -19.84923183 [kcal/mol]     -83.04918597 [kJ/mol]
      Disp20                      -30.62672105 [mEh]     -19.21855761 [kcal/mol]     -80.41044504 [kJ/mol]
      Disp21                        0.91490529 [mEh]       0.57411174 [kcal/mol]       2.40208352 [kJ/mol]
      Disp22 (SDQ)                 -3.66155521 [mEh]      -2.29766058 [kcal/mol]      -9.61341189 [kJ/mol]
      Disp22 (T)                   -5.65621449 [mEh]      -3.54932818 [kcal/mol]     -14.85038909 [kJ/mol]
      Est. Disp22 (T)              -6.56932290 [mEh]      -4.12231236 [kcal/mol]     -17.24775489 [kJ/mol]
      Exch-Disp20                   8.31092948 [mEh]       5.21518698 [kcal/mol]      21.82034233 [kJ/mol]

  Total HF                       -128.03557934 [mEh]     -80.34353902 [kcal/mol]    -336.15736726 [kJ/mol]
  Total SAPT0                    -150.35137092 [mEh]     -94.34690965 [kcal/mol]    -394.74746997 [kJ/mol]
  Total SAPT2                    -135.16324882 [mEh]     -84.81621914 [kcal/mol]    -354.87106088 [kJ/mol]
  Total SAPT2+                   -144.47922164 [mEh]     -90.66208034 [kcal/mol]    -379.33014415 [kJ/mol]

  Special recipe for scaled SAPT0 (see Manual):
    Electrostatics sSAPT0        -159.54737190 [mEh]    -100.11748739 [kcal/mol]    -418.89156722 [kJ/mol]
    Exchange sSAPT0                86.32288325 [mEh]      54.16842704 [kcal/mol]     226.64069874 [kJ/mol]
    Induction sSAPT0              -55.14373091 [mEh]     -34.60321356 [kcal/mol]    -144.77984555 [kJ/mol]
    Dispersion sSAPT0             -22.42330041 [mEh]     -14.07083344 [kcal/mol]     -58.87236711 [kJ/mol]
  Total sSAPT0                   -150.79151997 [mEh]     -94.62310735 [kcal/mol]    -395.90308114 [kJ/mol]
  --------------------------------------------------------------------------------------------------------

*** Psi4 exiting successfully. Buy a developer a beer!
