                               Psi4 1.8.2 release

  ==> Input File <==

--------------------------------------------------------------------------
MEMORY 60 GB

molecule dimer {
-1 1
F      0.000000     0.000000     0.000000
--
0 1
O     -0.397648    -0.910418     2.622164
H     -0.278439    -0.332943     1.846098
H     -0.948382    -1.629149     2.239891
O      0.397013     2.439291     1.895123
H      0.857906     1.621274     1.666906
H     -0.315526     2.168674     2.538856
O      1.430544    -2.203104    -0.374068
H      0.802760    -1.465357    -0.109589
H      2.163364    -2.326051     0.230939
O     -2.107879    -1.075061    -1.420751
H     -1.468864    -0.523104    -0.966716
H     -2.939395    -0.987639    -0.873767
O      1.169294     1.920077    -2.056293
H      0.738830     1.355211    -1.379914
H      1.743484     1.303436    -2.480539
O     -1.806412     1.932441     0.047936
H     -1.097988     1.281221     0.130003
H     -1.594507     2.797864     0.448413

units ang
no_reorient
no_com
symmetry c1
}

set {
basis        aug-cc-pVTZ
scf_type     df
}

energy("sapt2+")
--------------------------------------------------------------------------

  //              Dimer HF             //
    Molecular point group: c1
  Charge       = -1
  Multiplicity = 1
  Basis Set: AUG-CC-PVTZ
    Blend: AUG-CC-PVTZ
  Basis Set: (AUG-CC-PVTZ AUX)
    Blend: AUG-CC-PVTZ-JKFIT
  @DF-RHF Final Energy:  -555.91943442332035
    Total Energy =                       -555.9194344233203537
 Dipole X            :         24.7317432          -24.2970800            0.4346632
 Dipole Y            :        -38.4919140           37.9631711           -0.5287429
 Dipole Z            :        -15.8298079           17.0140906            1.1842827
 Magnitude           :                                                    1.3678548
  //            Monomer A HF           //
    Molecular point group: c1
  Multiplicity = 1
  Basis Set: AUG-CC-PVTZ
    Blend: AUG-CC-PVTZ
  Basis Set: (AUG-CC-PVTZ AUX)
    Blend: AUG-CC-PVTZ-JKFIT
  @DF-RHF Final Energy:   -99.45115882809618
    Total Energy =                        -99.4511588280961831
  //            Monomer B HF           //
    Molecular point group: c1

    Geometry (in Angstrom), charge = 0, multiplicity = 1:

       Center              X                  Y                   Z               Mass
    ------------   -----------------  -----------------  -----------------  -----------------
      Gh(F)           0.000000000000     0.000000000000     0.000000000000    18.998403162730
         O           -0.397648000000    -0.910418000000     2.622164000000    15.994914619570
         H           -0.278439000000    -0.332943000000     1.846098000000     1.007825032230
         H           -0.948382000000    -1.629149000000     2.239891000000     1.007825032230
         O            0.397013000000     2.439291000000     1.895123000000    15.994914619570
         H            0.857906000000     1.621274000000     1.666906000000     1.007825032230
         H           -0.315526000000     2.168674000000     2.538856000000     1.007825032230
         O            1.430544000000    -2.203104000000    -0.374068000000    15.994914619570
         H            0.802760000000    -1.465357000000    -0.109589000000     1.007825032230
         H            2.163364000000    -2.326051000000     0.230939000000     1.007825032230
         O           -2.107879000000    -1.075061000000    -1.420751000000    15.994914619570
         H           -1.468864000000    -0.523104000000    -0.966716000000     1.007825032230
         H           -2.939395000000    -0.987639000000    -0.873767000000     1.007825032230
         O            1.169294000000     1.920077000000    -2.056293000000    15.994914619570
         H            0.738830000000     1.355211000000    -1.379914000000     1.007825032230
         H            1.743484000000     1.303436000000    -2.480539000000     1.007825032230
         O           -1.806412000000     1.932441000000     0.047936000000    15.994914619570
         H           -1.097988000000     1.281221000000     0.130003000000     1.007825032230
         H           -1.594507000000     2.797864000000     0.448413000000     1.007825032230

  Charge       = 0
  Multiplicity = 1
  Basis Set: AUG-CC-PVTZ
    Blend: AUG-CC-PVTZ
  Basis Set: (AUG-CC-PVTZ AUX)
    Blend: AUG-CC-PVTZ-JKFIT

    Orbital Energies [Eh]
    ---------------------

    Doubly Occupied:

       1A    -20.613362     2A    -20.602302     3A    -20.591701
       4A    -20.586570     5A    -20.583257     6A    -20.578652
       7A     -1.386637     8A     -1.375915     9A     -1.362634
      10A     -1.360646    11A     -1.360134    12A     -1.357152
      13A     -0.753997    14A     -0.746707    15A     -0.741449
      16A     -0.737214    17A     -0.720005    18A     -0.718496
      19A     -0.628110    20A     -0.610853    21A     -0.598246
      22A     -0.597142    23A     -0.591480    24A     -0.585898
      25A     -0.550002    26A     -0.535381    27A     -0.529580
      28A     -0.525320    29A     -0.521471    30A     -0.518908

  @DF-RHF Final Energy:  -456.32557613426775

   => Energetics <=

    Nuclear Repulsion Energy =            251.0040425083582249
    One-Electron Energy =               -1128.7207904148715443
    Two-Electron Energy =                 421.3911717722455705
    Total Energy =                       -456.3255761342677488
 Dipole X            :         24.4781659          -24.2970800            0.1810860
 Dipole Y            :        -38.4899319           37.9631711           -0.5267608
 Dipole Z            :        -15.7383018           17.0140906            1.2757888
 Magnitude           :                                                    1.3920870

    SAPT Results
  --------------------------------------------------------------------------------------------------------
    Electrostatics               -178.17219173 [mEh]    -111.80473828 [kcal/mol]    -467.79102495 [kJ/mol]
      Elst10,r                   -177.30709316 [mEh]    -111.26188072 [kcal/mol]    -465.51970895 [kJ/mol]
      Elst12,r                     -0.86509858 [mEh]      -0.54285755 [kcal/mol]      -2.27131600 [kJ/mol]

    Exchange                      121.38704716 [mEh]      76.17152209 [kcal/mol]     318.70164842 [kJ/mol]
      Exch10                       91.43464080 [mEh]      57.37610333 [kcal/mol]     240.06161635 [kJ/mol]
      Exch10(S^2)                  92.40280348 [mEh]      57.98363459 [kcal/mol]     242.60352711 [kJ/mol]
      Exch11(S^2)                   1.76668797 [mEh]       1.10861344 [kcal/mol]       4.63843863 [kJ/mol]
      Exch12(S^2)                  28.18571839 [mEh]      17.68680532 [kcal/mol]      74.00159344 [kJ/mol]

    Induction                     -68.36907287 [mEh]     -42.90224094 [kcal/mol]    -179.50297610 [kJ/mol]
      Ind20,r                     -75.06200526 [mEh]     -47.10211942 [kcal/mol]    -197.07526765 [kJ/mol]
      Ind22                       -17.59684590 [mEh]     -11.04218751 [kcal/mol]     -46.20051256 [kJ/mol]
      Exch-Ind20,r                 25.82758597 [mEh]      16.20705488 [kcal/mol]      67.81031762 [kJ/mol]
      Exch-Ind22                    6.05478163 [mEh]       3.79943283 [kcal/mol]      15.89682697 [kJ/mol]
      delta HF,r (2)               -7.59258931 [mEh]      -4.76442172 [kcal/mol]     -19.93434048 [kJ/mol]

    Dispersion                    -35.80009245 [mEh]     -22.46489718 [kcal/mol]     -93.99312978 [kJ/mol]
      Disp20                      -34.32603876 [mEh]     -21.53991452 [kcal/mol]     -90.12300234 [kJ/mol]
      Disp21                        0.90565440 [mEh]       0.56830672 [kcal/mol]       2.37779531 [kJ/mol]
      Disp22 (SDQ)                 -4.22888856 [mEh]      -2.65366763 [kcal/mol]     -11.10294538 [kJ/mol]
      Disp22 (T)                   -6.45059100 [mEh]      -4.04780696 [kcal/mol]     -16.93602434 [kJ/mol]
      Est. Disp22 (T)              -7.47026706 [mEh]      -4.68766335 [kcal/mol]     -19.61318345 [kJ/mol]
      Exch-Disp20                   9.31944751 [mEh]       5.84804161 [kcal/mol]      24.46820608 [kJ/mol]

  Total HF                       -142.69946096 [mEh]     -89.54526365 [kcal/mol]    -374.65738312 [kJ/mol]
  Total SAPT0                    -167.70605220 [mEh]    -105.23713656 [kcal/mol]    -440.31217938 [kJ/mol]
  Total SAPT2                    -150.16080869 [mEh]     -94.22733004 [kcal/mol]    -394.24714889 [kJ/mol]
  Total SAPT2+                   -160.95430990 [mEh]    -101.00035431 [kcal/mol]    -422.58548242 [kJ/mol]

  Special recipe for scaled SAPT0 (see Manual):
    Electrostatics sSAPT0        -177.30709316 [mEh]    -111.26188072 [kcal/mol]    -465.51970895 [kJ/mol]
    Exchange sSAPT0                91.43464080 [mEh]      57.37610333 [kcal/mol]     240.06161635 [kJ/mol]
    Induction sSAPT0              -57.63036810 [mEh]     -36.16360196 [kcal/mol]    -151.30851060 [kJ/mol]
    Dispersion sSAPT0             -25.29646993 [mEh]     -15.87377453 [kcal/mol]     -66.41587265 [kJ/mol]
  Total sSAPT0                   -168.79929039 [mEh]    -105.92315389 [kcal/mol]    -443.18247586 [kJ/mol]
  --------------------------------------------------------------------------------------------------------

*** Psi4 exiting successfully. Buy a developer a beer!
