                               Psi4 1.8.2 release

  ==> Input File <==

--------------------------------------------------------------------------
MEMORY 60 GB

molecule dimer {
-1 1
F      0.000000     0.000000     0.000000
--
0 1
O     -0.331381     0.249282     2.779760
H     -0.320730    -0.003331     1.859362
H      0.462546    -0.102102     3.256506
O     -2.816888     0.081699     0.065921
H     -1.864288    -0.047694     0.059424
H     -3.167471    -0.299167     0.838096
O      0.698056    -1.115714    -2.643289
H      0.021217    -0.824182    -3.293089
H      0.590159    -0.734498    -1.765903
O     -1.216980     2.387973    -1.254426
H     -0.806494     1.629908    -0.785597
H     -0.745204     3.218407    -0.927778
O      1.187241    -2.160570     1.374618
H      1.300436    -2.883562     0.707615
H      0.669894    -1.398415     0.902330

units ang
no_reorient
no_com
symmetry c1
}

set {
basis        aug-cc-pVTZ
scf_type     df
}

energy("sapt2+")
--------------------------------------------------------------------------

  //              Dimer HF             //
    Molecular point group: c1
  Charge       = -1
  Multiplicity = 1
  Basis Set: AUG-CC-PVTZ
    Blend: AUG-CC-PVTZ
  Basis Set: (AUG-CC-PVTZ AUX)
    Blend: AUG-CC-PVTZ-JKFIT
  @DF-RHF Final Energy:  -479.84750132689766
    Total Energy =                       -479.8475013268976568
 Dipole X            :         45.7162565          -44.7856607            0.9305958
 Dipole Y            :         11.1033447          -11.1555749           -0.0522302
 Dipole Z            :         -6.4543851            6.4848560            0.0304709
 Magnitude           :                                                    0.9325583
  //            Monomer A HF           //
    Molecular point group: c1
  Multiplicity = 1
  Basis Set: AUG-CC-PVTZ
    Blend: AUG-CC-PVTZ
  Basis Set: (AUG-CC-PVTZ AUX)
    Blend: AUG-CC-PVTZ-JKFIT
  @DF-RHF Final Energy:   -99.45109330245405
    Total Energy =                        -99.4510933024540691
  //            Monomer B HF           //
    Molecular point group: c1

    Geometry (in Angstrom), charge = 0, multiplicity = 1:

       Center              X                  Y                   Z               Mass
    ------------   -----------------  -----------------  -----------------  -----------------
      Gh(F)           0.000000000000     0.000000000000     0.000000000000    18.998403162730
         O           -0.331381000000     0.249282000000     2.779760000000    15.994914619570
         H           -0.320730000000    -0.003331000000     1.859362000000     1.007825032230
         H            0.462546000000    -0.102102000000     3.256506000000     1.007825032230
         O           -2.816888000000     0.081699000000     0.065921000000    15.994914619570
         H           -1.864288000000    -0.047694000000     0.059424000000     1.007825032230
         H           -3.167471000000    -0.299167000000     0.838096000000     1.007825032230
         O            0.698056000000    -1.115714000000    -2.643289000000    15.994914619570
         H            0.021217000000    -0.824182000000    -3.293089000000     1.007825032230
         H            0.590159000000    -0.734498000000    -1.765903000000     1.007825032230
         O           -1.216980000000     2.387973000000    -1.254426000000    15.994914619570
         H           -0.806494000000     1.629908000000    -0.785597000000     1.007825032230
         H           -0.745204000000     3.218407000000    -0.927778000000     1.007825032230
         O            1.187241000000    -2.160570000000     1.374618000000    15.994914619570
         H            1.300436000000    -2.883562000000     0.707615000000     1.007825032230
         H            0.669894000000    -1.398415000000     0.902330000000     1.007825032230

  Charge       = 0
  Multiplicity = 1
  Basis Set: AUG-CC-PVTZ
    Blend: AUG-CC-PVTZ
  Basis Set: (AUG-CC-PVTZ AUX)
    Blend: AUG-CC-PVTZ-JKFIT

    Orbital Energies [Eh]
    ---------------------

    Doubly Occupied:

       1A    -20.605170     2A    -20.585242     3A    -20.583532
       4A    -20.581467     5A    -20.577467     6A     -1.371494
       7A     -1.362116     8A     -1.357663     9A     -1.354348
      10A     -1.342209    11A     -0.752389    12A     -0.744873
      13A     -0.743062    14A     -0.722575    15A     -0.708585
      16A     -0.599616    17A     -0.592105    18A     -0.586268
      19A     -0.581516    20A     -0.579996    21A     -0.536037
      22A     -0.526536    23A     -0.524132    24A     -0.524087
      25A     -0.511390

  @DF-RHF Final Energy:  -380.26370766922804

   => Energetics <=

    Nuclear Repulsion Energy =            173.2800185700306486
    One-Electron Energy =                -869.1796952154758173
    Two-Electron Energy =                 315.6359689762171570
    Total Energy =                       -380.2637076692280402
 Dipole X            :         45.4319308          -44.7856607            0.6462701
 Dipole Y            :         10.8995484          -11.1555749           -0.2560265
 Dipole Z            :         -6.2891427            6.4848560            0.1957133
 Magnitude           :                                                    0.7221622

    SAPT Results
  --------------------------------------------------------------------------------------------------------
    Electrostatics               -147.99499577 [mEh]     -92.86826192 [kcal/mol]    -388.56080786 [kJ/mol]
      Elst10,r                   -147.97843441 [mEh]     -92.85786951 [kcal/mol]    -388.51732601 [kJ/mol]
      Elst12,r                     -0.01656136 [mEh]      -0.01039241 [kcal/mol]      -0.04348185 [kJ/mol]

    Exchange                       85.79519095 [mEh]      53.83729513 [kcal/mol]     225.25524280 [kJ/mol]
      Exch10                       63.51265685 [mEh]      39.85479388 [kcal/mol]     166.75245757 [kJ/mol]
      Exch10(S^2)                  63.96273870 [mEh]      40.13722450 [kcal/mol]     167.93414732 [kJ/mol]
      Exch11(S^2)                   1.41152275 [mEh]       0.88574390 [kcal/mol]       3.70595248 [kJ/mol]
      Exch12(S^2)                  20.87101135 [mEh]      13.09675735 [kcal/mol]      54.79683275 [kJ/mol]

    Induction                     -57.35326658 [mEh]     -35.98971813 [kcal/mol]    -150.58098066 [kJ/mol]
      Ind20,r                     -58.74048989 [mEh]     -36.86021390 [kcal/mol]    -154.22313495 [kJ/mol]
      Ind22                       -12.91830612 [mEh]      -8.10635947 [kcal/mol]     -33.91700803 [kJ/mol]
      Exch-Ind20,r                 17.27713936 [mEh]      10.84156863 [kcal/mol]      45.36112313 [kJ/mol]
      Exch-Ind22                    3.79961719 [mEh]       2.38429578 [kcal/mol]       9.97589355 [kJ/mol]
      delta HF,r (2)               -6.77122712 [mEh]      -4.24900917 [kcal/mol]     -17.77785436 [kJ/mol]

    Dispersion                    -27.54777419 [mEh]     -17.28648928 [kcal/mol]     -72.32667116 [kJ/mol]
      Disp20                      -25.63485447 [mEh]     -16.08611404 [kcal/mol]     -67.30430113 [kJ/mol]
      Disp21                        0.34551745 [mEh]       0.21681547 [kcal/mol]       0.90715593 [kJ/mol]
      Disp22 (SDQ)                 -3.16846014 [mEh]      -1.98823876 [kcal/mol]      -8.31879096 [kJ/mol]
      Disp22 (T)                   -4.85406199 [mEh]      -3.04596989 [kcal/mol]     -12.74433801 [kJ/mol]
      Est. Disp22 (T)              -5.67638365 [mEh]      -3.56198452 [kcal/mol]     -14.90334322 [kJ/mol]
      Exch-Disp20                   6.58640662 [mEh]       4.13303255 [kcal/mol]      17.29260821 [kJ/mol]

  Total HF                       -132.70035522 [mEh]     -83.27073007 [kcal/mol]    -348.40473462 [kJ/mol]
  Total SAPT0                    -151.74880306 [mEh]     -95.22381155 [kcal/mol]    -398.41642754 [kJ/mol]
  Total SAPT2                    -138.60151924 [mEh]     -86.97376641 [kcal/mol]    -363.89823864 [kJ/mol]
  Total SAPT2+                   -147.10084559 [mEh]     -92.30717421 [kcal/mol]    -386.21321688 [kJ/mol]

  Special recipe for scaled SAPT0 (see Manual):
    Electrostatics sSAPT0        -147.97843441 [mEh]     -92.85786951 [kcal/mol]    -388.51732601 [kJ/mol]
    Exchange sSAPT0                63.51265685 [mEh]      39.85479388 [kcal/mol]     166.75245757 [kJ/mol]
    Induction sSAPT0              -48.59673558 [mEh]     -30.49491197 [kcal/mol]    -127.59071168 [kJ/mol]
    Dispersion sSAPT0             -19.18651001 [mEh]     -12.03971680 [kcal/mol]     -50.37417510 [kJ/mol]
  Total sSAPT0                   -152.24902315 [mEh]     -95.53770440 [kcal/mol]    -399.72975521 [kJ/mol]
  --------------------------------------------------------------------------------------------------------

*** Psi4 exiting successfully. Buy a developer a beer!
