                               Psi4 1.8.2 release

  ==> Input File <==

--------------------------------------------------------------------------
MEMORY 60 GB

molecule dimer {
-1 1
F      0.000000     0.000000     0.000000
--
0 1
O     -1.136882    -1.427020    -2.064111
H     -0.783852    -0.777272    -1.407214
H     -0.400851    -1.885120    -2.490398
O      0.647093     1.533221    -2.138006
H     -0.259996     1.897885    -2.425146
H      0.490876     1.036365    -1.331999
O     -1.960682     2.060929     0.326986
H     -1.310449     1.308838     0.298130
H     -2.313939     1.970028     1.209085
O      0.487728    -2.673074     1.248775
H      0.447712    -2.447997     2.166696
H      0.530132    -1.919359     0.687623

units ang
no_reorient
no_com
symmetry c1
}

set {
basis        aug-cc-pVTZ
scf_type     df
}

energy("sapt2+")
--------------------------------------------------------------------------

  //              Dimer HF             //
    Molecular point group: c1
  Charge       = -1
  Multiplicity = 1
  Basis Set: AUG-CC-PVTZ
    Blend: AUG-CC-PVTZ
  Basis Set: (AUG-CC-PVTZ AUX)
    Blend: AUG-CC-PVTZ-JKFIT
  @DF-RHF Final Energy:  -403.78424958171860
    Total Energy =                       -403.7842495817185977
 Dipole X            :         36.9815325          -36.4760814            0.5054511
 Dipole Y            :          9.3115860           -9.1919756            0.1196104
 Dipole Z            :         47.6616894          -45.9280379            1.7336515
 Magnitude           :                                                    1.8097886
  //            Monomer A HF           //
    Molecular point group: c1
  Multiplicity = 1
  Basis Set: AUG-CC-PVTZ
    Blend: AUG-CC-PVTZ
  Basis Set: (AUG-CC-PVTZ AUX)
    Blend: AUG-CC-PVTZ-JKFIT
  @DF-RHF Final Energy:   -99.45105698815108
    Total Energy =                        -99.4510569881510662
  //            Monomer B HF           //
    Molecular point group: c1

    Geometry (in Angstrom), charge = 0, multiplicity = 1:

       Center              X                  Y                   Z               Mass
    ------------   -----------------  -----------------  -----------------  -----------------
      Gh(F)           0.000000000000     0.000000000000     0.000000000000    18.998403162730
         O           -1.136882000000    -1.427020000000    -2.064111000000    15.994914619570
         H           -0.783852000000    -0.777272000000    -1.407214000000     1.007825032230
         H           -0.400851000000    -1.885120000000    -2.490398000000     1.007825032230
         O            0.647093000000     1.533221000000    -2.138006000000    15.994914619570
         H           -0.259996000000     1.897885000000    -2.425146000000     1.007825032230
         H            0.490876000000     1.036365000000    -1.331999000000     1.007825032230
         O           -1.960682000000     2.060929000000     0.326986000000    15.994914619570
         H           -1.310449000000     1.308838000000     0.298130000000     1.007825032230
         H           -2.313939000000     1.970028000000     1.209085000000     1.007825032230
         O            0.487728000000    -2.673074000000     1.248775000000    15.994914619570
         H            0.447712000000    -2.447997000000     2.166696000000     1.007825032230
         H            0.530132000000    -1.919359000000     0.687623000000     1.007825032230

  Charge       = 0
  Multiplicity = 1
  Basis Set: AUG-CC-PVTZ
    Blend: AUG-CC-PVTZ
  Basis Set: (AUG-CC-PVTZ AUX)
    Blend: AUG-CC-PVTZ-JKFIT

    Orbital Energies [Eh]
    ---------------------

    Doubly Occupied:

       1A    -20.593586     2A    -20.584416     3A    -20.580009
       4A    -20.575440     5A     -1.369397     6A     -1.369314
       7A     -1.352731     8A     -1.349539     9A     -0.756208
      10A     -0.730643    11A     -0.724342    12A     -0.715935
      13A     -0.609145    14A     -0.589632    15A     -0.584886
      16A     -0.580925    17A     -0.531661    18A     -0.525201
      19A     -0.522345    20A     -0.513133

  @DF-RHF Final Energy:  -304.22165747890267

   => Energetics <=

    Nuclear Repulsion Energy =            113.4449857204834871
    One-Electron Energy =                -645.0163051668600929
    Two-Electron Energy =                 227.3496619674739065
    Total Energy =                       -304.2216574789026708
 Dipole X            :         36.6281655          -36.4760814            0.1520841
 Dipole Y            :          9.3777298           -9.1919756            0.1857543
 Dipole Z            :         47.1514353          -45.9280379            1.2233974
 Magnitude           :                                                    1.2467298

    SAPT Results
  --------------------------------------------------------------------------------------------------------
    Electrostatics               -129.28984221 [mEh]     -81.13060085 [kcal/mol]    -339.45043396 [kJ/mol]
      Elst10,r                   -129.04621195 [mEh]     -80.97772056 [kcal/mol]    -338.81078281 [kJ/mol]
      Elst12,r                     -0.24363026 [mEh]      -0.15288029 [kcal/mol]      -0.63965115 [kJ/mol]

    Exchange                       79.86078130 [mEh]      50.11339685 [kcal/mol]     209.67445242 [kJ/mol]
      Exch10                       60.20692042 [mEh]      37.78041295 [kcal/mol]     158.07324779 [kJ/mol]
      Exch10(S^2)                  60.40338904 [mEh]      37.90369887 [kcal/mol]     158.58907607 [kJ/mol]
      Exch11(S^2)                   1.00063694 [mEh]       0.62790916 [kcal/mol]       2.62717192 [kJ/mol]
      Exch12(S^2)                  18.65322394 [mEh]      11.70507474 [kcal/mol]      48.97403270 [kJ/mol]

    Induction                     -50.61991638 [mEh]     -31.76447709 [kcal/mol]    -132.90257214 [kJ/mol]
      Ind20,r                     -52.88639279 [mEh]     -33.18671251 [kcal/mol]    -138.85320514 [kJ/mol]
      Ind22                       -11.90358687 [mEh]      -7.46961353 [kcal/mol]     -31.25286302 [kJ/mol]
      Exch-Ind20,r                 17.68047441 [mEh]      11.09466519 [kcal/mol]      46.42007916 [kJ/mol]
      Exch-Ind22                    3.97949363 [mEh]       2.49716995 [kcal/mol]      10.44815908 [kJ/mol]
      delta HF,r (2)               -7.48990475 [mEh]      -4.69998619 [kcal/mol]     -19.66474222 [kJ/mol]

    Dispersion                    -23.67080854 [mEh]     -14.85365661 [kcal/mol]     -62.14769927 [kJ/mol]
      Disp20                      -22.35740720 [mEh]     -14.02948483 [kcal/mol]     -58.69936453 [kJ/mol]
      Disp21                        0.32530627 [mEh]       0.20413276 [kcal/mol]       0.85409149 [kJ/mol]
      Disp22 (SDQ)                 -2.71124170 [mEh]      -1.70132985 [kcal/mol]      -7.11836411 [kJ/mol]
      Disp22 (T)                   -4.13374353 [mEh]      -2.59396323 [kcal/mol]     -10.85314214 [kJ/mol]
      Est. Disp22 (T)              -4.86763575 [mEh]      -3.05448755 [kcal/mol]     -12.77997590 [kJ/mol]
      Exch-Disp20                   5.94016985 [mEh]       3.72751285 [kcal/mol]      15.59591378 [kJ/mol]

  Total HF                       -111.53511466 [mEh]     -69.98934111 [kcal/mol]    -292.83540321 [kJ/mol]
  Total SAPT0                    -127.95235202 [mEh]     -80.29131309 [kcal/mol]    -335.93885395 [kJ/mol]
  Total SAPT2                    -116.46621465 [mEh]     -73.08365307 [kcal/mol]    -305.78200443 [kJ/mol]
  Total SAPT2+                   -123.71978583 [mEh]     -77.63533770 [kcal/mol]    -324.82625295 [kJ/mol]

  Special recipe for scaled SAPT0 (see Manual):
    Electrostatics sSAPT0        -129.04621195 [mEh]     -80.97772056 [kcal/mol]    -338.81078281 [kJ/mol]
    Exchange sSAPT0                60.20692042 [mEh]      37.78041295 [kcal/mol]     158.07324779 [kJ/mol]
    Induction sSAPT0              -42.86778561 [mEh]     -26.89994159 [kcal/mol]    -112.54935561 [kJ/mol]
    Dispersion sSAPT0             -16.47501218 [mEh]     -10.33822622 [kcal/mol]     -43.25513852 [kJ/mol]
  Total sSAPT0                   -128.18208932 [mEh]     -80.43547542 [kcal/mol]    -336.54202915 [kJ/mol]
  --------------------------------------------------------------------------------------------------------

*** Psi4 exiting successfully. Buy a developer a beer!
