                               Psi4 1.8.2 release

  ==> Input File <==

--------------------------------------------------------------------------
MEMORY 60 GB

molecule dimer {
-1 1
F      0.000000     0.000000     0.000000
--
0 1
O     -1.757669     1.731762    -1.188806
H     -1.054100     1.222666    -0.807146
H     -2.431703     1.051578    -1.257114
O     -0.820887    -1.641481    -2.008204
H     -0.237360    -2.357330    -2.347688
H     -0.248955    -1.123146    -1.330694
O     -0.048245    -2.492875     1.400940
H     -0.330918    -3.382914     1.097712
H     -0.433577    -1.797270     0.832638
O     -0.132776     0.799660     2.598069
H      0.795625     0.856029     2.802210
H     -0.046890     0.411235     1.712879
O      1.613949     1.493049    -1.711417
H      1.268428     1.014021    -0.937188
H      2.504434     1.668752    -1.471379

units ang
no_reorient
no_com
symmetry c1
}

set {
basis        aug-cc-pVTZ
scf_type     df
}

energy("sapt2+")
--------------------------------------------------------------------------

  //              Dimer HF             //
    Molecular point group: c1
  Charge       = -1
  Multiplicity = 1
  Basis Set: AUG-CC-PVTZ
    Blend: AUG-CC-PVTZ
  Basis Set: (AUG-CC-PVTZ AUX)
    Blend: AUG-CC-PVTZ-JKFIT
  @DF-RHF Final Energy:  -479.85095092619247
    Total Energy =                       -479.8509509261924677
 Dipole X            :         19.1851006          -17.7257066            1.4593939
 Dipole Y            :          4.8701293           -6.2653095           -1.3951802
 Dipole Z            :         17.1492839          -16.9718458            0.1774382
 Magnitude           :                                                    2.0267814
  //            Monomer A HF           //
    Molecular point group: c1
  Multiplicity = 1
  Basis Set: AUG-CC-PVTZ
    Blend: AUG-CC-PVTZ
  Basis Set: (AUG-CC-PVTZ AUX)
    Blend: AUG-CC-PVTZ-JKFIT
  @DF-RHF Final Energy:   -99.45111655492592
    Total Energy =                        -99.4511165549259317
  //            Monomer B HF           //
    Molecular point group: c1

    Geometry (in Angstrom), charge = 0, multiplicity = 1:

       Center              X                  Y                   Z               Mass
    ------------   -----------------  -----------------  -----------------  -----------------
      Gh(F)           0.000000000000     0.000000000000     0.000000000000    18.998403162730
         O           -1.757669000000     1.731762000000    -1.188806000000    15.994914619570
         H           -1.054100000000     1.222666000000    -0.807146000000     1.007825032230
         H           -2.431703000000     1.051578000000    -1.257114000000     1.007825032230
         O           -0.820887000000    -1.641481000000    -2.008204000000    15.994914619570
         H           -0.237360000000    -2.357330000000    -2.347688000000     1.007825032230
         H           -0.248955000000    -1.123146000000    -1.330694000000     1.007825032230
         O           -0.048245000000    -2.492875000000     1.400940000000    15.994914619570
         H           -0.330918000000    -3.382914000000     1.097712000000     1.007825032230
         H           -0.433577000000    -1.797270000000     0.832638000000     1.007825032230
         O           -0.132776000000     0.799660000000     2.598069000000    15.994914619570
         H            0.795625000000     0.856029000000     2.802210000000     1.007825032230
         H           -0.046890000000     0.411235000000     1.712879000000     1.007825032230
         O            1.613949000000     1.493049000000    -1.711417000000    15.994914619570
         H            1.268428000000     1.014021000000    -0.937188000000     1.007825032230
         H            2.504434000000     1.668752000000    -1.471379000000     1.007825032230

  Charge       = 0
  Multiplicity = 1
  Basis Set: AUG-CC-PVTZ
    Blend: AUG-CC-PVTZ
  Basis Set: (AUG-CC-PVTZ AUX)
    Blend: AUG-CC-PVTZ-JKFIT

    Orbital Energies [Eh]
    ---------------------

    Doubly Occupied:

       1A    -20.602562     2A    -20.589072     3A    -20.588105
       4A    -20.583262     5A    -20.568141     6A     -1.375794
       7A     -1.368917     8A     -1.360128     9A     -1.358320
      10A     -1.356688    11A     -0.741777    12A     -0.738489
      13A     -0.721657    14A     -0.713882    15A     -0.707610
      16A     -0.609286    17A     -0.606126    18A     -0.602296
      19A     -0.592926    20A     -0.589753    21A     -0.534767
      22A     -0.530083    23A     -0.527459    24A     -0.522535
      25A     -0.510050

  @DF-RHF Final Energy:  -380.27343632749580

   => Energetics <=

    Nuclear Repulsion Energy =            175.0000726077207958
    One-Electron Energy =                -872.5476428771528390
    Two-Electron Energy =                 317.2741339419362703
    Total Energy =                       -380.2734363274958014
 Dipole X            :         19.0431780          -17.7257066            1.3174714
 Dipole Y            :          4.8110019           -6.2653095           -1.4543076
 Dipole Z            :         16.9537075          -16.9718458           -0.0181383
 Magnitude           :                                                    1.9624144

    SAPT Results
  --------------------------------------------------------------------------------------------------------
    Electrostatics               -157.91187646 [mEh]     -99.09119850 [kcal/mol]    -414.59757452 [kJ/mol]
      Elst10,r                   -156.06429842 [mEh]     -97.93182578 [kcal/mol]    -409.74675905 [kJ/mol]
      Elst12,r                     -1.84757804 [mEh]      -1.15937272 [kcal/mol]      -4.85081548 [kJ/mol]

    Exchange                      107.77867018 [mEh]      67.63213661 [kcal/mol]     282.97285957 [kJ/mol]
      Exch10                       81.42925263 [mEh]      51.09762747 [kcal/mol]     213.79247332 [kJ/mol]
      Exch10(S^2)                  82.28056907 [mEh]      51.63183660 [kcal/mol]     216.02760434 [kJ/mol]
      Exch11(S^2)                   1.43226239 [mEh]       0.89875822 [kcal/mol]       3.76040438 [kJ/mol]
      Exch12(S^2)                  24.91715516 [mEh]      15.63575092 [kcal/mol]      65.41998186 [kJ/mol]

    Induction                     -61.88664894 [mEh]     -38.83445851 [kcal/mol]    -162.48337441 [kJ/mol]
      Ind20,r                     -67.51328087 [mEh]     -42.36522335 [kcal/mol]    -177.25609451 [kJ/mol]
      Ind22                       -15.33939408 [mEh]      -9.62561511 [kcal/mol]     -40.27357361 [kJ/mol]
      Exch-Ind20,r                 22.95605214 [mEh]      14.40514020 [kcal/mol]      60.27110658 [kJ/mol]
      Exch-Ind22                    5.21574312 [mEh]       3.27292822 [kcal/mol]      13.69393168 [kJ/mol]
      delta HF,r (2)               -7.20576924 [mEh]      -4.52168847 [kcal/mol]     -18.91874454 [kJ/mol]

    Dispersion                    -31.82324966 [mEh]     -19.96939065 [kcal/mol]     -83.55193048 [kJ/mol]
      Disp20                      -30.51137857 [mEh]     -19.14617911 [kcal/mol]     -80.10761339 [kJ/mol]
      Disp21                        0.65182191 [mEh]       0.40902442 [kcal/mol]       1.71135819 [kJ/mol]
      Disp22 (SDQ)                 -3.59028361 [mEh]      -2.25293698 [kcal/mol]      -9.42628832 [kJ/mol]
      Disp22 (T)                   -5.64474937 [mEh]      -3.54213371 [kcal/mol]     -14.82028743 [kJ/mol]
      Est. Disp22 (T)              -6.57316723 [mEh]      -4.12472471 [kcal/mol]     -17.25784820 [kJ/mol]
      Exch-Disp20                   8.19975784 [mEh]       5.14542573 [kcal/mol]      21.52846123 [kJ/mol]

  Total HF                       -126.39804377 [mEh]     -79.31596993 [kcal/mol]    -331.85801820 [kJ/mol]
  Total SAPT0                    -148.70966450 [mEh]     -93.31672332 [kcal/mol]    -390.43717035 [kJ/mol]
  Total SAPT2                    -134.33147595 [mEh]     -84.29427379 [kcal/mol]    -352.68724152 [kJ/mol]
  Total SAPT2+                   -143.84310489 [mEh]     -90.26291105 [kcal/mol]    -377.66001985 [kJ/mol]

  Special recipe for scaled SAPT0 (see Manual):
    Electrostatics sSAPT0        -156.06429842 [mEh]     -97.93182578 [kcal/mol]    -409.74675905 [kJ/mol]
    Exchange sSAPT0                81.42925263 [mEh]      51.09762747 [kcal/mol]     213.79247332 [kJ/mol]
    Induction sSAPT0              -52.46819589 [mEh]     -32.92428999 [kcal/mol]    -137.75522933 [kJ/mol]
    Dispersion sSAPT0             -22.56351300 [mEh]     -14.15881817 [kcal/mol]     -59.24049522 [kJ/mol]
  Total sSAPT0                   -149.66675468 [mEh]     -93.91730647 [kcal/mol]    -392.95001027 [kJ/mol]
  --------------------------------------------------------------------------------------------------------

*** Psi4 exiting successfully. Buy a developer a beer!
