                               Psi4 1.8.2 release

  ==> Input File <==

--------------------------------------------------------------------------
MEMORY 60 GB

molecule dimer {
-1 1
F      0.000000     0.000000     0.000000
--
0 1
O     -0.707361     2.525434    -1.575050
H     -1.618200     2.532030    -1.172278
H     -0.360557     1.715787    -1.222011
O      0.231457    -1.514785     2.454981
H      0.520078    -2.412679     2.201167
H      0.152694    -0.949314     1.706223
O      2.534888    -0.934845    -0.773892
H      1.708681    -0.455364    -0.810073
H      2.593842    -1.430710    -1.602941
O     -1.646211    -2.005263    -0.559192
H     -2.276294    -1.608534    -1.184598
H     -0.985436    -1.310462    -0.430945
O     -0.839643     1.611946     1.821990
H     -0.333256     1.129240     1.164903
H     -1.766320     1.284318     1.860799

units ang
no_reorient
no_com
symmetry c1
}

set {
basis        aug-cc-pVTZ
scf_type     df
}

energy("sapt2+")
--------------------------------------------------------------------------

  //              Dimer HF             //
    Molecular point group: c1
  Charge       = -1
  Multiplicity = 1
  Basis Set: AUG-CC-PVTZ
    Blend: AUG-CC-PVTZ
  Basis Set: (AUG-CC-PVTZ AUX)
    Blend: AUG-CC-PVTZ-JKFIT
  @DF-RHF Final Energy:  -479.85800268168578
    Total Energy =                       -479.8580026816857753
 Dipole X            :         10.1990505          -10.9221030           -0.7230525
 Dipole Y            :          7.1805811           -7.6454388           -0.4648578
 Dipole Z            :        -23.2618875           21.6580415           -1.6038460
 Magnitude           :                                                    1.8196757
  //            Monomer A HF           //
    Molecular point group: c1
  Multiplicity = 1
  Basis Set: AUG-CC-PVTZ
    Blend: AUG-CC-PVTZ
  Basis Set: (AUG-CC-PVTZ AUX)
    Blend: AUG-CC-PVTZ-JKFIT
  @DF-RHF Final Energy:   -99.45112333247582
    Total Energy =                        -99.4511233324758166
  //            Monomer B HF           //
    Molecular point group: c1

    Geometry (in Angstrom), charge = 0, multiplicity = 1:

       Center              X                  Y                   Z               Mass
    ------------   -----------------  -----------------  -----------------  -----------------
      Gh(F)           0.000000000000     0.000000000000     0.000000000000    18.998403162730
         O           -0.707361000000     2.525434000000    -1.575050000000    15.994914619570
         H           -1.618200000000     2.532030000000    -1.172278000000     1.007825032230
         H           -0.360557000000     1.715787000000    -1.222011000000     1.007825032230
         O            0.231457000000    -1.514785000000     2.454981000000    15.994914619570
         H            0.520078000000    -2.412679000000     2.201167000000     1.007825032230
         H            0.152694000000    -0.949314000000     1.706223000000     1.007825032230
         O            2.534888000000    -0.934845000000    -0.773892000000    15.994914619570
         H            1.708681000000    -0.455364000000    -0.810073000000     1.007825032230
         H            2.593842000000    -1.430710000000    -1.602941000000     1.007825032230
         O           -1.646211000000    -2.005263000000    -0.559192000000    15.994914619570
         H           -2.276294000000    -1.608534000000    -1.184598000000     1.007825032230
         H           -0.985436000000    -1.310462000000    -0.430945000000     1.007825032230
         O           -0.839643000000     1.611946000000     1.821990000000    15.994914619570
         H           -0.333256000000     1.129240000000     1.164903000000     1.007825032230
         H           -1.766320000000     1.284318000000     1.860799000000     1.007825032230

  Charge       = 0
  Multiplicity = 1
  Basis Set: AUG-CC-PVTZ
    Blend: AUG-CC-PVTZ
  Basis Set: (AUG-CC-PVTZ AUX)
    Blend: AUG-CC-PVTZ-JKFIT

    Orbital Energies [Eh]
    ---------------------

    Doubly Occupied:

       1A    -20.601042     2A    -20.592328     3A    -20.590775
       4A    -20.589944     5A    -20.567387     6A     -1.378831
       7A     -1.373418     8A     -1.370234     9A     -1.365434
      10A     -1.351038    11A     -0.748034    12A     -0.742498
      13A     -0.740159    14A     -0.731981    15A     -0.723635
      16A     -0.614539    17A     -0.609434    18A     -0.603065
      19A     -0.590801    20A     -0.572869    21A     -0.540237
      22A     -0.534800    23A     -0.532197    24A     -0.524893
      25A     -0.510350

  @DF-RHF Final Energy:  -380.27884554507210

   => Energetics <=

    Nuclear Repulsion Energy =            173.5478883085968675
    One-Electron Energy =                -869.4536153385191710
    Two-Electron Energy =                 315.6268814848502302
    Total Energy =                       -380.2788455450721017
 Dipole X            :          9.9300024          -10.9221030           -0.9921006
 Dipole Y            :          7.0536905           -7.6454388           -0.5917484
 Dipole Z            :        -23.0630094           21.6580415           -1.4049679
 Magnitude           :                                                    1.8188910

    SAPT Results
  --------------------------------------------------------------------------------------------------------
    Electrostatics               -163.23333606 [mEh]    -102.43046481 [kcal/mol]    -428.56906477 [kJ/mol]
      Elst10,r                   -162.16084739 [mEh]    -101.75746801 [kcal/mol]    -425.75324617 [kJ/mol]
      Elst12,r                     -1.07248867 [mEh]      -0.67299680 [kcal/mol]      -2.81581860 [kJ/mol]

    Exchange                      111.07492400 [mEh]      69.70056711 [kcal/mol]     291.62717279 [kJ/mol]
      Exch10                       84.49318333 [mEh]      53.02027301 [kcal/mol]     221.83682228 [kJ/mol]
      Exch10(S^2)                  85.18785625 [mEh]      53.45618685 [kcal/mol]     223.66068576 [kJ/mol]
      Exch11(S^2)                   1.20991484 [mEh]       0.75923303 [kcal/mol]       3.17663098 [kJ/mol]
      Exch12(S^2)                  25.37182583 [mEh]      15.92106107 [kcal/mol]      66.61371953 [kJ/mol]

    Induction                     -60.54289422 [mEh]     -37.99123969 [kcal/mol]    -158.95534688 [kJ/mol]
      Ind20,r                     -68.30731140 [mEh]     -42.86348503 [kcal/mol]    -179.34082138 [kJ/mol]
      Ind22                       -16.20942195 [mEh]     -10.17156584 [kcal/mol]     -42.55783146 [kJ/mol]
      Exch-Ind20,r                 25.42196259 [mEh]      15.95252237 [kcal/mol]      66.74535358 [kJ/mol]
      Exch-Ind22                    6.03266780 [mEh]       3.78555620 [kcal/mol]      15.83876714 [kJ/mol]
      delta HF,r (2)               -7.48079126 [mEh]      -4.69426739 [kcal/mol]     -19.64081476 [kJ/mol]

    Dispersion                    -31.32579612 [mEh]     -19.65723384 [kcal/mol]     -82.24586639 [kJ/mol]
      Disp20                      -30.18308675 [mEh]     -18.94017288 [kcal/mol]     -79.24568335 [kJ/mol]
      Disp21                        0.64667897 [mEh]       0.40579718 [kcal/mol]       1.69785540 [kJ/mol]
      Disp22 (SDQ)                 -3.68115899 [mEh]      -2.30996214 [kcal/mol]      -9.66488159 [kJ/mol]
      Disp22 (T)                   -5.54063082 [mEh]      -3.47679833 [kcal/mol]     -14.54692421 [kJ/mol]
      Est. Disp22 (T)              -6.47365730 [mEh]      -4.06228129 [kcal/mol]     -16.99658490 [kJ/mol]
      Exch-Disp20                   8.36542795 [mEh]       5.24938529 [kcal/mol]      21.96342805 [kJ/mol]

  Total HF                       -128.03380414 [mEh]     -80.34242506 [kcal/mol]    -336.15270645 [kJ/mol]
  Total SAPT0                    -149.85146294 [mEh]     -94.03321265 [kcal/mol]    -393.43496175 [kJ/mol]
  Total SAPT2                    -134.51896508 [mEh]     -84.41192499 [kcal/mol]    -353.17949416 [kJ/mol]
  Total SAPT2+                   -144.02710240 [mEh]     -90.37837124 [kcal/mol]    -378.14310525 [kJ/mol]

  Special recipe for scaled SAPT0 (see Manual):
    Electrostatics sSAPT0        -162.16084739 [mEh]    -101.75746801 [kcal/mol]    -425.75324617 [kJ/mol]
    Exchange sSAPT0                84.49318333 [mEh]      53.02027301 [kcal/mol]     221.83682228 [kJ/mol]
    Induction sSAPT0              -50.98300020 [mEh]     -31.99231563 [kcal/mol]    -133.85584859 [kJ/mol]
    Dispersion sSAPT0             -22.02064466 [mEh]     -13.81816314 [kcal/mol]     -57.81519459 [kJ/mol]
  Total sSAPT0                   -150.67130892 [mEh]     -94.54767377 [kcal/mol]    -395.58746707 [kJ/mol]
  --------------------------------------------------------------------------------------------------------

*** Psi4 exiting successfully. Buy a developer a beer!
