                               Psi4 1.8.2 release

  ==> Input File <==

--------------------------------------------------------------------------
MEMORY 60 GB

molecule dimer {
-1 1
F      0.000000     0.000000     0.000000
--
0 1
O     -1.926510    -0.488905     1.828209
H     -1.218437    -0.291512     1.216095
H     -1.943797     0.253946     2.436303
O     -1.465982     2.344386    -0.959195
H     -1.258918     1.474742    -0.673609
H     -0.760802     2.572151    -1.640564
O      1.781208     1.993985     0.947440
H      2.722858     1.834958     1.158027
H      1.404065     1.156182     0.633208
O      0.920742    -0.070805    -2.597380
H      0.201064     0.162434    -3.173783
H      0.557053     0.093415    -1.736858
O      1.502065    -2.307810     0.115819
H      1.299950    -2.782798    -0.663331
H      1.063706    -1.409643     0.038071

units ang
no_reorient
no_com
symmetry c1
}

set {
basis        aug-cc-pVTZ
scf_type     df
}

energy("sapt2+")
--------------------------------------------------------------------------

  //              Dimer HF             //
    Molecular point group: c1
  Charge       = -1
  Multiplicity = 1
  Basis Set: AUG-CC-PVTZ
    Blend: AUG-CC-PVTZ
  Basis Set: (AUG-CC-PVTZ AUX)
    Blend: AUG-CC-PVTZ-JKFIT
  @DF-RHF Final Energy:  -479.86432918717156
    Total Energy =                       -479.8643291871715633
 Dipole X            :        -16.0177727           16.1740261            0.1562534
 Dipole Y            :        -27.9805200           28.0259291            0.0454091
 Dipole Z            :         13.9703537          -14.6024750           -0.6321213
 Magnitude           :                                                    0.6527285
  //            Monomer A HF           //
    Molecular point group: c1
  Multiplicity = 1
  Basis Set: AUG-CC-PVTZ
    Blend: AUG-CC-PVTZ
  Basis Set: (AUG-CC-PVTZ AUX)
    Blend: AUG-CC-PVTZ-JKFIT
  @DF-RHF Final Energy:   -99.45111440420320
    Total Energy =                        -99.4511144042031958
  //            Monomer B HF           //
    Molecular point group: c1

    Geometry (in Angstrom), charge = 0, multiplicity = 1:

       Center              X                  Y                   Z               Mass
    ------------   -----------------  -----------------  -----------------  -----------------
      Gh(F)           0.000000000000     0.000000000000     0.000000000000    18.998403162730
         O           -1.926510000000    -0.488905000000     1.828209000000    15.994914619570
         H           -1.218437000000    -0.291512000000     1.216095000000     1.007825032230
         H           -1.943797000000     0.253946000000     2.436303000000     1.007825032230
         O           -1.465982000000     2.344386000000    -0.959195000000    15.994914619570
         H           -1.258918000000     1.474742000000    -0.673609000000     1.007825032230
         H           -0.760802000000     2.572151000000    -1.640564000000     1.007825032230
         O            1.781208000000     1.993985000000     0.947440000000    15.994914619570
         H            2.722858000000     1.834958000000     1.158027000000     1.007825032230
         H            1.404065000000     1.156182000000     0.633208000000     1.007825032230
         O            0.920742000000    -0.070805000000    -2.597380000000    15.994914619570
         H            0.201064000000     0.162434000000    -3.173783000000     1.007825032230
         H            0.557053000000     0.093415000000    -1.736858000000     1.007825032230
         O            1.502065000000    -2.307810000000     0.115819000000    15.994914619570
         H            1.299950000000    -2.782798000000    -0.663331000000     1.007825032230
         H            1.063706000000    -1.409643000000     0.038071000000     1.007825032230

  Charge       = 0
  Multiplicity = 1
  Basis Set: AUG-CC-PVTZ
    Blend: AUG-CC-PVTZ
  Basis Set: (AUG-CC-PVTZ AUX)
    Blend: AUG-CC-PVTZ-JKFIT

    Orbital Energies [Eh]
    ---------------------

    Doubly Occupied:

       1A    -20.601693     2A    -20.589943     3A    -20.589688
       4A    -20.584643     5A    -20.582619     6A     -1.394175
       7A     -1.368046     8A     -1.366995     9A     -1.363566
      10A     -1.363182    11A     -0.754901    12A     -0.737533
      13A     -0.734276    14A     -0.733031    15A     -0.729934
      16A     -0.625569    17A     -0.599069    18A     -0.597860
      19A     -0.595641    20A     -0.593147    21A     -0.545744
      22A     -0.529645    23A     -0.527419    24A     -0.525645
      25A     -0.523865

  @DF-RHF Final Energy:  -380.28167626211018

   => Energetics <=

    Nuclear Repulsion Energy =            173.2148820099921807
    One-Electron Energy =                -868.6774546094439984
    Two-Electron Energy =                 315.1808963373416645
    Total Energy =                       -380.2816762621101816
 Dipole X            :        -15.8413398           16.1740261            0.3326863
 Dipole Y            :        -27.9232795           28.0259291            0.1026496
 Dipole Z            :         13.8804101          -14.6024750           -0.7220650
 Magnitude           :                                                    0.8016202

    SAPT Results
  --------------------------------------------------------------------------------------------------------
    Electrostatics               -158.82053250 [mEh]     -99.66138877 [kcal/mol]    -416.98325063 [kJ/mol]
      Elst10,r                   -157.89724184 [mEh]     -99.08201514 [kcal/mol]    -414.55915133 [kJ/mol]
      Elst12,r                     -0.92329066 [mEh]      -0.57937364 [kcal/mol]      -2.42409930 [kJ/mol]

    Exchange                      101.61189588 [mEh]      63.76242732 [kcal/mol]     266.78199589 [kJ/mol]
      Exch10                       76.47534016 [mEh]      47.98900046 [kcal/mol]     200.78597793 [kJ/mol]
      Exch10(S^2)                  77.25934974 [mEh]      48.48097390 [kcal/mol]     202.84439480 [kJ/mol]
      Exch11(S^2)                   1.30542325 [mEh]       0.81916546 [kcal/mol]       3.42738828 [kJ/mol]
      Exch12(S^2)                  23.83113247 [mEh]      14.95426140 [kcal/mol]      62.56862968 [kJ/mol]

    Induction                     -60.00501628 [mEh]     -37.65371619 [kcal/mol]    -157.54314855 [kJ/mol]
      Ind20,r                     -64.80431271 [mEh]     -40.66532016 [kcal/mol]    -170.14369957 [kJ/mol]
      Ind22                       -14.81875042 [mEh]      -9.29890628 [kcal/mol]     -38.90662387 [kJ/mol]
      Exch-Ind20,r                 21.56107291 [mEh]      13.52977752 [kcal/mol]      56.60858914 [kJ/mol]
      Exch-Ind22                    4.93035332 [mEh]       3.09384342 [kcal/mol]      12.94464086 [kJ/mol]
      delta HF,r (2)               -6.87337939 [mEh]      -4.31311068 [kcal/mol]     -18.04605510 [kJ/mol]

    Dispersion                    -30.48957236 [mEh]     -19.13249551 [kcal/mol]     -80.05036121 [kJ/mol]
      Disp20                      -28.90419236 [mEh]     -18.13765454 [kcal/mol]     -75.88794659 [kJ/mol]
      Disp21                        0.44867838 [mEh]       0.28154993 [kcal/mol]       1.17800492 [kJ/mol]
      Disp22 (SDQ)                 -3.47567994 [mEh]      -2.18102209 [kcal/mol]      -9.12539643 [kJ/mol]
      Disp22 (T)                   -5.34573733 [mEh]      -3.35450082 [kcal/mol]     -14.03523142 [kJ/mol]
      Est. Disp22 (T)              -6.23954116 [mEh]      -3.91537119 [kcal/mol]     -16.38191305 [kJ/mol]
      Exch-Disp20                   7.68116272 [mEh]       4.82000238 [kcal/mol]      20.16688994 [kJ/mol]

  Total HF                       -131.53852086 [mEh]     -82.54166801 [kcal/mol]    -345.35433893 [kJ/mol]
  Total SAPT0                    -152.76155050 [mEh]     -95.85932017 [kcal/mol]    -401.07539558 [kJ/mol]
  Total SAPT2                    -138.43668254 [mEh]     -86.87032981 [kcal/mol]    -363.46545994 [kJ/mol]
  Total SAPT2+                   -147.70322526 [mEh]     -92.68517316 [kcal/mol]    -387.79476450 [kJ/mol]

  Special recipe for scaled SAPT0 (see Manual):
    Electrostatics sSAPT0        -157.89724184 [mEh]     -99.08201514 [kcal/mol]    -414.55915133 [kJ/mol]
    Exchange sSAPT0                76.47534016 [mEh]      47.98900046 [kcal/mol]     200.78597793 [kJ/mol]
    Induction sSAPT0              -50.76637080 [mEh]     -31.85637863 [kcal/mol]    -133.28708818 [kJ/mol]
    Dispersion sSAPT0             -21.45450458 [mEh]     -13.46290488 [kcal/mol]     -56.32879401 [kJ/mol]
  Total sSAPT0                   -153.64277706 [mEh]     -96.41229818 [kcal/mol]    -403.38905559 [kJ/mol]
  --------------------------------------------------------------------------------------------------------

*** Psi4 exiting successfully. Buy a developer a beer!
