                               Psi4 1.8.2 release

  ==> Input File <==

--------------------------------------------------------------------------
MEMORY 60 GB

molecule dimer {
-1 1
F      0.000000     0.000000     0.000000
--
0 1
O     -2.535941    -0.518749    -0.841397
H     -2.920259     0.371723    -0.962405
H     -1.599270    -0.369082    -0.662928
O      1.559802     1.999498     1.426683
H      1.052305     1.577903     0.700547
H      2.485581     1.914871     1.234694
O      1.354501    -1.676034    -1.827240
H      2.081264    -1.020441    -1.804735
H      0.735366    -1.229436    -1.225870
O      2.371662    -0.821742     1.847114
H      1.868561    -0.165946     1.393601
H      2.048718    -0.788545     2.707674
O     -0.396813    -1.938838     2.239603
H     -0.284999    -1.373573     1.502641
H     -1.382193    -1.991135     2.209240
O     -2.085558     1.288771     1.727221
H     -1.503937     2.039451     1.584522
H     -1.562251     0.562158     1.399159
O     -0.164884     1.767301    -2.325383
H     -0.793236     1.519173    -3.058380
H     -0.020245     1.007979    -1.706815

units ang
no_reorient
no_com
symmetry c1
}

set {
basis        aug-cc-pVTZ
scf_type     df
}

energy("sapt2+")
--------------------------------------------------------------------------

  //              Dimer HF             //
    Molecular point group: c1
  Charge       = -1
  Multiplicity = 1
  Basis Set: AUG-CC-PVTZ
    Blend: AUG-CC-PVTZ
  Basis Set: (AUG-CC-PVTZ AUX)
    Blend: AUG-CC-PVTZ-JKFIT
  @DF-RHF Final Energy:  -631.99255481045213
    Total Energy =                       -631.9925548104521340
 Dipole X            :         -1.8497439            1.9418013            0.0920574
 Dipole Y            :         -4.2268367            5.3984864            1.1716497
 Dipole Z            :        -40.9182381           40.2204641           -0.6977740
 Magnitude           :                                                    1.3667941
  //            Monomer A HF           //
    Molecular point group: c1
  Multiplicity = 1
  Basis Set: AUG-CC-PVTZ
    Blend: AUG-CC-PVTZ
  Basis Set: (AUG-CC-PVTZ AUX)
    Blend: AUG-CC-PVTZ-JKFIT
  @DF-RHF Final Energy:   -99.45117341975309
    Total Energy =                        -99.4511734197530899
  //            Monomer B HF           //
    Molecular point group: c1

    Geometry (in Angstrom), charge = 0, multiplicity = 1:

       Center              X                  Y                   Z               Mass
    ------------   -----------------  -----------------  -----------------  -----------------
      Gh(F)           0.000000000000     0.000000000000     0.000000000000    18.998403162730
         O           -2.535941000000    -0.518749000000    -0.841397000000    15.994914619570
         H           -2.920259000000     0.371723000000    -0.962405000000     1.007825032230
         H           -1.599270000000    -0.369082000000    -0.662928000000     1.007825032230
         O            1.559802000000     1.999498000000     1.426683000000    15.994914619570
         H            1.052305000000     1.577903000000     0.700547000000     1.007825032230
         H            2.485581000000     1.914871000000     1.234694000000     1.007825032230
         O            1.354501000000    -1.676034000000    -1.827240000000    15.994914619570
         H            2.081264000000    -1.020441000000    -1.804735000000     1.007825032230
         H            0.735366000000    -1.229436000000    -1.225870000000     1.007825032230
         O            2.371662000000    -0.821742000000     1.847114000000    15.994914619570
         H            1.868561000000    -0.165946000000     1.393601000000     1.007825032230
         H            2.048718000000    -0.788545000000     2.707674000000     1.007825032230
         O           -0.396813000000    -1.938838000000     2.239603000000    15.994914619570
         H           -0.284999000000    -1.373573000000     1.502641000000     1.007825032230
         H           -1.382193000000    -1.991135000000     2.209240000000     1.007825032230
         O           -2.085558000000     1.288771000000     1.727221000000    15.994914619570
         H           -1.503937000000     2.039451000000     1.584522000000     1.007825032230
         H           -1.562251000000     0.562158000000     1.399159000000     1.007825032230
         O           -0.164884000000     1.767301000000    -2.325383000000    15.994914619570
         H           -0.793236000000     1.519173000000    -3.058380000000     1.007825032230
         H           -0.020245000000     1.007979000000    -1.706815000000     1.007825032230

  Charge       = 0
  Multiplicity = 1
  Basis Set: AUG-CC-PVTZ
    Blend: AUG-CC-PVTZ
  Basis Set: (AUG-CC-PVTZ AUX)
    Blend: AUG-CC-PVTZ-JKFIT

    Orbital Energies [Eh]
    ---------------------

    Doubly Occupied:

       1A    -20.611596     2A    -20.609655     3A    -20.603669
       4A    -20.600236     5A    -20.592137     6A    -20.589163
       7A    -20.566799     8A     -1.395762     9A     -1.383344
      10A     -1.378500    11A     -1.377692    12A     -1.375373
      13A     -1.372255    14A     -1.370833    15A     -0.768355
      16A     -0.753113    17A     -0.746635    18A     -0.741344
      19A     -0.737748    20A     -0.723286    21A     -0.720026
      22A     -0.621460    23A     -0.620287    24A     -0.617295
      25A     -0.616461    26A     -0.610624    27A     -0.603367
      28A     -0.601913    29A     -0.551376    30A     -0.548872
      31A     -0.544922    32A     -0.535543    33A     -0.531756
      34A     -0.527338    35A     -0.516327

  @DF-RHF Final Energy:  -532.38415822934053

   => Energetics <=

    Nuclear Repulsion Energy =            336.3376570681220414
    One-Electron Energy =               -1403.3134999785377204
    Two-Electron Energy =                 534.5916846810750940
    Total Energy =                       -532.3841582293405281
 Dipole X            :         -1.9752603            1.9418013           -0.0334590
 Dipole Y            :         -4.1668803            5.3984864            1.2316062
 Dipole Z            :        -40.9516041           40.2204641           -0.7311400
 Magnitude           :                                                    1.4326685

    SAPT Results
  --------------------------------------------------------------------------------------------------------
    Electrostatics               -177.55146753 [mEh]    -111.41522796 [kcal/mol]    -466.16131377 [kJ/mol]
      Elst10,r                   -177.89284115 [mEh]    -111.62944314 [kcal/mol]    -467.05759009 [kJ/mol]
      Elst12,r                      0.34137362 [mEh]       0.21421518 [kcal/mol]       0.89627631 [kJ/mol]

    Exchange                       97.51189585 [mEh]      61.18963845 [kcal/mol]     256.01744728 [kJ/mol]
      Exch10                       70.69948807 [mEh]      44.36459855 [kcal/mol]     185.62148034 [kJ/mol]
      Exch10(S^2)                  71.62201507 [mEh]      44.94349298 [kcal/mol]     188.04357465 [kJ/mol]
      Exch11(S^2)                   1.72608724 [mEh]       1.08313610 [kcal/mol]       4.53184143 [kJ/mol]
      Exch12(S^2)                  25.08632054 [mEh]      15.74190380 [kcal/mol]      65.86412551 [kJ/mol]

    Induction                     -60.99698636 [mEh]     -38.27618681 [kcal/mol]    -160.14756562 [kJ/mol]
      Ind20,r                     -65.04095169 [mEh]     -40.81381337 [kcal/mol]    -170.76499514 [kJ/mol]
      Ind22                       -15.74261561 [mEh]      -9.87864044 [kcal/mol]     -41.33223158 [kJ/mol]
      Exch-Ind20,r                 19.72982184 [mEh]      12.38065012 [kcal/mol]      51.80064012 [kJ/mol]
      Exch-Ind22                    4.77543752 [mEh]       2.99663229 [kcal/mol]      12.53790949 [kJ/mol]
      delta HF,r (2)               -4.71867843 [mEh]      -2.96101542 [kcal/mol]     -12.38888852 [kJ/mol]

    Dispersion                    -33.74815008 [mEh]     -21.17728390 [kcal/mol]     -88.60575584 [kJ/mol]
      Disp20                      -31.05290403 [mEh]     -19.48599147 [kcal/mol]     -81.52938829 [kJ/mol]
      Disp21                        0.56379597 [mEh]       0.35378731 [kcal/mol]       1.48024611 [kJ/mol]
      Disp22 (SDQ)                 -4.15670968 [mEh]      -2.60837470 [kcal/mol]     -10.91343975 [kJ/mol]
      Disp22 (T)                   -5.92803624 [mEh]      -3.71989890 [kcal/mol]     -15.56405700 [kJ/mol]
      Est. Disp22 (T)              -6.96449943 [mEh]      -4.37028937 [kcal/mol]     -18.28529073 [kJ/mol]
      Exch-Disp20                   7.86216708 [mEh]       4.93358433 [kcal/mol]      20.64211683 [kJ/mol]

  Total HF                       -157.22316136 [mEh]     -98.65902325 [kcal/mol]    -412.78935328 [kJ/mol]
  Total SAPT0                    -180.41389830 [mEh]    -113.21143039 [kcal/mol]    -473.67662474 [kJ/mol]
  Total SAPT2                    -164.22729499 [mEh]    -103.05418346 [kcal/mol]    -431.17870359 [kJ/mol]
  Total SAPT2+                   -174.78470813 [mEh]    -109.67906022 [kcal/mol]    -458.89718796 [kJ/mol]

  Special recipe for scaled SAPT0 (see Manual):
    Electrostatics sSAPT0        -177.89284115 [mEh]    -111.62944314 [kcal/mol]    -467.05759009 [kJ/mol]
    Exchange sSAPT0                70.69948807 [mEh]      44.36459855 [kcal/mol]     185.62148034 [kJ/mol]
    Induction sSAPT0              -50.78242009 [mEh]     -31.86644971 [kcal/mol]    -133.32922558 [kJ/mol]
    Dispersion sSAPT0             -23.49064639 [mEh]     -14.74060315 [kcal/mol]     -61.67468359 [kJ/mol]
  Total sSAPT0                   -181.46641956 [mEh]    -113.87189745 [kcal/mol]    -476.44001892 [kJ/mol]
  --------------------------------------------------------------------------------------------------------

*** Psi4 exiting successfully. Buy a developer a beer!
