                               Psi4 1.8.2 release

  ==> Input File <==

--------------------------------------------------------------------------
MEMORY 60 GB

molecule dimer {
-1 1
F      0.000000     0.000000     0.000000
--
0 1
O     -2.200509     1.323634     0.710260
H     -1.503891     0.683674     0.540733
H     -2.315484     1.737995    -0.119068
O     -1.967079    -2.020860    -0.122763
H     -1.318963    -1.305195     0.136157
H     -1.696741    -2.218317    -1.007498
O      0.991465    -1.547512     2.500463
H      0.667023    -1.154030     1.676389
H      0.516695    -1.090567     3.200283
O      2.410120     0.780079    -1.095237
H      3.060268     0.046287    -0.902074
H      1.654642     0.711894    -0.477528
O      1.437300    -2.134809    -0.746584
H      1.223810    -2.927188    -0.210324
H      0.772852    -1.490569    -0.481987
O     -0.357139     2.126165    -1.924590
H     -0.018848     1.313137    -1.513999
H      0.141845     2.856791    -1.535479

units ang
no_reorient
no_com
symmetry c1
}

set {
basis        aug-cc-pVTZ
scf_type     df
}

energy("sapt2+")
--------------------------------------------------------------------------

  //              Dimer HF             //
    Molecular point group: c1
  Charge       = -1
  Multiplicity = 1
  Basis Set: AUG-CC-PVTZ
    Blend: AUG-CC-PVTZ
  Basis Set: (AUG-CC-PVTZ AUX)
    Blend: AUG-CC-PVTZ-JKFIT
  @DF-RHF Final Energy:  -555.92966659420688
    Total Energy =                       -555.9296665942068785
 Dipole X            :         -6.5418943            6.9853197            0.4434254
 Dipole Y            :         27.8391119          -27.6325429            0.2065689
 Dipole Z            :         12.0399968          -11.5689090            0.4710878
 Magnitude           :                                                    0.6791322
  //            Monomer A HF           //
    Molecular point group: c1
  Multiplicity = 1
  Basis Set: AUG-CC-PVTZ
    Blend: AUG-CC-PVTZ
  Basis Set: (AUG-CC-PVTZ AUX)
    Blend: AUG-CC-PVTZ-JKFIT
  @DF-RHF Final Energy:   -99.45115342300255
    Total Energy =                        -99.4511534230025376
  //            Monomer B HF           //
    Molecular point group: c1

    Geometry (in Angstrom), charge = 0, multiplicity = 1:

       Center              X                  Y                   Z               Mass
    ------------   -----------------  -----------------  -----------------  -----------------
      Gh(F)           0.000000000000     0.000000000000     0.000000000000    18.998403162730
         O           -2.200509000000     1.323634000000     0.710260000000    15.994914619570
         H           -1.503891000000     0.683674000000     0.540733000000     1.007825032230
         H           -2.315484000000     1.737995000000    -0.119068000000     1.007825032230
         O           -1.967079000000    -2.020860000000    -0.122763000000    15.994914619570
         H           -1.318963000000    -1.305195000000     0.136157000000     1.007825032230
         H           -1.696741000000    -2.218317000000    -1.007498000000     1.007825032230
         O            0.991465000000    -1.547512000000     2.500463000000    15.994914619570
         H            0.667023000000    -1.154030000000     1.676389000000     1.007825032230
         H            0.516695000000    -1.090567000000     3.200283000000     1.007825032230
         O            2.410120000000     0.780079000000    -1.095237000000    15.994914619570
         H            3.060268000000     0.046287000000    -0.902074000000     1.007825032230
         H            1.654642000000     0.711894000000    -0.477528000000     1.007825032230
         O            1.437300000000    -2.134809000000    -0.746584000000    15.994914619570
         H            1.223810000000    -2.927188000000    -0.210324000000     1.007825032230
         H            0.772852000000    -1.490569000000    -0.481987000000     1.007825032230
         O           -0.357139000000     2.126165000000    -1.924590000000    15.994914619570
         H           -0.018848000000     1.313137000000    -1.513999000000     1.007825032230
         H            0.141845000000     2.856791000000    -1.535479000000     1.007825032230

  Charge       = 0
  Multiplicity = 1
  Basis Set: AUG-CC-PVTZ
    Blend: AUG-CC-PVTZ
  Basis Set: (AUG-CC-PVTZ AUX)
    Blend: AUG-CC-PVTZ-JKFIT

    Orbital Energies [Eh]
    ---------------------

    Doubly Occupied:

       1A    -20.605050     2A    -20.603861     3A    -20.597469
       4A    -20.591566     5A    -20.588249     6A    -20.582097
       7A     -1.385068     8A     -1.380446     9A     -1.377548
      10A     -1.376176    11A     -1.367412    12A     -1.356746
      13A     -0.752535    14A     -0.744091    15A     -0.743155
      16A     -0.741071    17A     -0.729964    18A     -0.727816
      19A     -0.626559    20A     -0.612765    21A     -0.610136
      22A     -0.605142    23A     -0.600161    24A     -0.591131
      25A     -0.546581    26A     -0.541057    27A     -0.537467
      28A     -0.532782    29A     -0.526776    30A     -0.521903

  @DF-RHF Final Energy:  -456.33155286410386

   => Energetics <=

    Nuclear Repulsion Energy =            254.2281735657654167
    One-Electron Energy =               -1134.9138814846348851
    Two-Electron Energy =                 424.3541550547655561
    Total Energy =                       -456.3315528641038554
 Dipole X            :         -6.5579444            6.9853197            0.4273753
 Dipole Y            :         27.5752489          -27.6325429           -0.0572941
 Dipole Z            :         11.9080922          -11.5689090            0.3391832
 Magnitude           :                                                    0.5486142

    SAPT Results
  --------------------------------------------------------------------------------------------------------
    Electrostatics               -184.05083891 [mEh]    -115.49364508 [kcal/mol]    -483.22541100 [kJ/mol]
      Elst10,r                   -182.87205504 [mEh]    -114.75394702 [kcal/mol]    -480.13051435 [kJ/mol]
      Elst12,r                     -1.17878388 [mEh]      -0.73969805 [kcal/mol]      -3.09489665 [kJ/mol]

    Exchange                      122.54816234 [mEh]      76.90013286 [kcal/mol]     321.75015590 [kJ/mol]
      Exch10                       91.64423455 [mEh]      57.50762540 [kcal/mol]     240.61190466 [kJ/mol]
      Exch10(S^2)                  92.57251009 [mEh]      58.09012709 [kcal/mol]     243.04909176 [kJ/mol]
      Exch11(S^2)                   1.96660046 [mEh]       1.23406042 [kcal/mol]       5.16330878 [kJ/mol]
      Exch12(S^2)                  28.93732734 [mEh]      18.15844705 [kcal/mol]      75.97494245 [kJ/mol]

    Induction                     -67.36755903 [mEh]     -42.27378152 [kcal/mol]    -176.87350187 [kJ/mol]
      Ind20,r                     -75.10710587 [mEh]     -47.13042048 [kcal/mol]    -197.19367930 [kJ/mol]
      Ind22                       -17.81665551 [mEh]     -11.18012013 [kcal/mol]     -46.77762261 [kJ/mol]
      Exch-Ind20,r                 26.05880861 [mEh]      16.35214928 [kcal/mol]      68.41739258 [kJ/mol]
      Exch-Ind22                    6.18158310 [mEh]       3.87900196 [kcal/mol]      16.22974419 [kJ/mol]
      delta HF,r (2)               -6.68418935 [mEh]      -4.19439214 [kcal/mol]     -17.54933673 [kJ/mol]

    Dispersion                    -36.53771384 [mEh]     -22.92776159 [kcal/mol]     -95.92975447 [kJ/mol]
      Disp20                      -35.00268772 [mEh]     -21.96451815 [kcal/mol]     -91.89954394 [kJ/mol]
      Disp21                        0.97873161 [mEh]       0.61416336 [kcal/mol]       2.56965949 [kJ/mol]
      Disp22 (SDQ)                 -4.37103613 [mEh]      -2.74286658 [kcal/mol]     -11.47615378 [kJ/mol]
      Disp22 (T)                   -6.59819758 [mEh]      -4.14043149 [kcal/mol]     -17.32356536 [kJ/mol]
      Est. Disp22 (T)              -7.64291988 [mEh]      -4.79600463 [kcal/mol]     -20.06648338 [kJ/mol]
      Exch-Disp20                   9.50019828 [mEh]       5.96146442 [kcal/mol]      24.94276714 [kJ/mol]

  Total HF                       -146.96030710 [mEh]     -92.21898497 [kcal/mol]    -385.84423313 [kJ/mol]
  Total SAPT0                    -172.46279654 [mEh]    -108.22203870 [kcal/mol]    -452.80100994 [kJ/mol]
  Total SAPT2                    -154.37272505 [mEh]     -96.87034746 [kcal/mol]    -405.30553377 [kJ/mol]
  Total SAPT2+                   -165.40794945 [mEh]    -103.79505532 [kcal/mol]    -434.27851144 [kJ/mol]

  Special recipe for scaled SAPT0 (see Manual):
    Electrostatics sSAPT0        -182.87205504 [mEh]    -114.75394702 [kcal/mol]    -480.13051435 [kJ/mol]
    Exchange sSAPT0                91.64423455 [mEh]      57.50762540 [kcal/mol]     240.61190466 [kJ/mol]
    Induction sSAPT0              -56.50857019 [mEh]     -35.45966314 [kcal/mol]    -148.36323059 [kJ/mol]
    Dispersion sSAPT0             -25.78542440 [mEh]     -16.18059809 [kcal/mol]     -67.69962242 [kJ/mol]
  Total sSAPT0                   -173.52181507 [mEh]    -108.88658286 [kcal/mol]    -455.58146270 [kJ/mol]
  --------------------------------------------------------------------------------------------------------

*** Psi4 exiting successfully. Buy a developer a beer!
