                               Psi4 1.8.2 release

  ==> Input File <==

--------------------------------------------------------------------------
MEMORY 60 GB

molecule dimer {
-1 1
F      0.000000     0.000000     0.000000
--
0 1
O     -2.498532    -0.881431    -0.464596
H     -3.244844    -0.373050    -0.742977
H     -1.787443    -0.231783    -0.439473
O      0.821961    -0.941013    -2.487806
H      0.553219    -0.751966    -1.546993
H      0.984333    -1.880222    -2.681248
O      2.741876     1.268113     0.623068
H      1.805546     0.967787     0.731277
H      2.912001     1.778305     1.404663
O      0.039880    -2.040644     1.862439
H     -0.844297    -2.487575     1.683009
H      0.092425    -1.237739     1.280131
O     -0.422554     1.200836     2.437095
H     -0.724798     2.111332     2.489843
H     -0.282246     0.936943     1.519701

units ang
no_reorient
no_com
symmetry c1
}

set {
basis        aug-cc-pVTZ
scf_type     df
}

energy("sapt2+")
--------------------------------------------------------------------------

  //              Dimer HF             //
    Molecular point group: c1
  Charge       = -1
  Multiplicity = 1
  Basis Set: AUG-CC-PVTZ
    Blend: AUG-CC-PVTZ
  Basis Set: (AUG-CC-PVTZ AUX)
    Blend: AUG-CC-PVTZ-JKFIT
  @DF-RHF Final Energy:  -479.84900715462135
    Total Energy =                       -479.8490071546213471
 Dipole X            :        -10.5334709            9.3067953           -1.2266755
 Dipole Y            :         24.5739336          -23.2834668            1.2904669
 Dipole Z            :        -37.1283447           36.7731879           -0.3551568
 Magnitude           :                                                    1.8155368
  //            Monomer A HF           //
    Molecular point group: c1
  Multiplicity = 1
  Basis Set: AUG-CC-PVTZ
    Blend: AUG-CC-PVTZ
  Basis Set: (AUG-CC-PVTZ AUX)
    Blend: AUG-CC-PVTZ-JKFIT
  @DF-RHF Final Energy:   -99.45110812333802
    Total Energy =                        -99.4511081233380025
  //            Monomer B HF           //
    Molecular point group: c1

    Geometry (in Angstrom), charge = 0, multiplicity = 1:

       Center              X                  Y                   Z               Mass
    ------------   -----------------  -----------------  -----------------  -----------------
      Gh(F)           0.000000000000     0.000000000000     0.000000000000    18.998403162730
         O           -2.498532000000    -0.881431000000    -0.464596000000    15.994914619570
         H           -3.244844000000    -0.373050000000    -0.742977000000     1.007825032230
         H           -1.787443000000    -0.231783000000    -0.439473000000     1.007825032230
         O            0.821961000000    -0.941013000000    -2.487806000000    15.994914619570
         H            0.553219000000    -0.751966000000    -1.546993000000     1.007825032230
         H            0.984333000000    -1.880222000000    -2.681248000000     1.007825032230
         O            2.741876000000     1.268113000000     0.623068000000    15.994914619570
         H            1.805546000000     0.967787000000     0.731277000000     1.007825032230
         H            2.912001000000     1.778305000000     1.404663000000     1.007825032230
         O            0.039880000000    -2.040644000000     1.862439000000    15.994914619570
         H           -0.844297000000    -2.487575000000     1.683009000000     1.007825032230
         H            0.092425000000    -1.237739000000     1.280131000000     1.007825032230
         O           -0.422554000000     1.200836000000     2.437095000000    15.994914619570
         H           -0.724798000000     2.111332000000     2.489843000000     1.007825032230
         H           -0.282246000000     0.936943000000     1.519701000000     1.007825032230

  Charge       = 0
  Multiplicity = 1
  Basis Set: AUG-CC-PVTZ
    Blend: AUG-CC-PVTZ
  Basis Set: (AUG-CC-PVTZ AUX)
    Blend: AUG-CC-PVTZ-JKFIT

    Orbital Energies [Eh]
    ---------------------

    Doubly Occupied:

       1A    -20.595077     2A    -20.592564     3A    -20.577113
       4A    -20.575606     5A    -20.573566     6A     -1.381797
       7A     -1.376456     8A     -1.355737     9A     -1.339875
      10A     -1.333102    11A     -0.759703    12A     -0.743769
      13A     -0.727438    14A     -0.718628    15A     -0.702532
      16A     -0.614221    17A     -0.599664    18A     -0.590655
      19A     -0.572940    20A     -0.566713    21A     -0.537969
      22A     -0.534855    23A     -0.516794    24A     -0.510921
      25A     -0.507701

  @DF-RHF Final Energy:  -380.27447263053978

   => Energetics <=

    Nuclear Repulsion Energy =            173.4507989727936206
    One-Electron Energy =                -869.6397451801964280
    Two-Electron Energy =                 315.9144735768629744
    Total Energy =                       -380.2744726305397762
 Dipole X            :        -10.6191637            9.3067953           -1.3123683
 Dipole Y            :         24.3013683          -23.2834668            1.0179015
 Dipole Z            :        -36.8355219           36.7731879           -0.0623340
 Magnitude           :                                                    1.6620228

    SAPT Results
  --------------------------------------------------------------------------------------------------------
    Electrostatics               -148.34262581 [mEh]     -93.08640306 [kcal/mol]    -389.47351041 [kJ/mol]
      Elst10,r                   -146.50115099 [mEh]     -91.93086016 [kcal/mol]    -384.63871893 [kJ/mol]
      Elst12,r                     -1.84147483 [mEh]      -1.15554290 [kcal/mol]      -4.83479149 [kJ/mol]

    Exchange                       96.96387100 [mEh]      60.84574766 [kcal/mol]     254.57860823 [kJ/mol]
      Exch10                       73.04856085 [mEh]      45.83866398 [kcal/mol]     191.78897010 [kJ/mol]
      Exch10(S^2)                  73.65734483 [mEh]      46.22068170 [kcal/mol]     193.38733221 [kJ/mol]
      Exch11(S^2)                   1.20155205 [mEh]       0.75398530 [kcal/mol]       3.15467448 [kJ/mol]
      Exch12(S^2)                  22.71375809 [mEh]      14.25309839 [kcal/mol]      59.63496364 [kJ/mol]

    Induction                     -59.56715047 [mEh]     -37.37895124 [kcal/mol]    -156.39353200 [kJ/mol]
      Ind20,r                     -63.38206362 [mEh]     -39.77284539 [kcal/mol]    -166.40958510 [kJ/mol]
      Ind22                       -14.19461886 [mEh]      -8.90725781 [kcal/mol]     -37.26796669 [kJ/mol]
      Exch-Ind20,r                 20.54571254 [mEh]      12.89262927 [kcal/mol]      53.94276085 [kJ/mol]
      Exch-Ind22                    4.60127901 [mEh]       2.88734617 [kcal/mol]      12.08065637 [kJ/mol]
      delta HF,r (2)               -7.13745954 [mEh]      -4.47882348 [kcal/mol]     -18.73939743 [kJ/mol]

    Dispersion                    -29.42162457 [mEh]     -18.46234815 [kcal/mol]     -77.24646467 [kJ/mol]
      Disp20                      -27.91377567 [mEh]     -17.51615868 [kcal/mol]     -73.28760792 [kJ/mol]
      Disp21                        0.48484653 [mEh]       0.30424579 [kcal/mol]       1.27296439 [kJ/mol]
      Disp22 (SDQ)                 -3.27441744 [mEh]      -2.05472797 [kcal/mol]      -8.59698181 [kJ/mol]
      Disp22 (T)                   -5.18435662 [mEh]      -3.25323290 [kcal/mol]     -13.61152644 [kJ/mol]
      Est. Disp22 (T)              -6.03429293 [mEh]      -3.78657598 [kcal/mol]     -15.84303391 [kJ/mol]
      Exch-Disp20                   7.31601494 [mEh]       4.59086869 [kcal/mol]      19.20819459 [kJ/mol]

  Total HF                       -123.42640074 [mEh]     -77.45123578 [kcal/mol]    -324.05597051 [kJ/mol]
  Total SAPT0                    -144.02416147 [mEh]     -90.37652577 [kcal/mol]    -378.13538384 [kJ/mol]
  Total SAPT2                    -131.54366601 [mEh]     -82.54489663 [kcal/mol]    -345.36784752 [kJ/mol]
  Total SAPT2+                   -140.36752985 [mEh]     -88.08195479 [kcal/mol]    -368.53489886 [kJ/mol]

  Special recipe for scaled SAPT0 (see Manual):
    Electrostatics sSAPT0        -146.50115099 [mEh]     -91.93086016 [kcal/mol]    -384.63871893 [kJ/mol]
    Exchange sSAPT0                73.04856085 [mEh]      45.83866398 [kcal/mol]     191.78897010 [kJ/mol]
    Induction sSAPT0              -50.47904766 [mEh]     -31.67608064 [kcal/mol]    -132.53272138 [kJ/mol]
    Dispersion sSAPT0             -20.77766793 [mEh]     -13.03818347 [kcal/mol]     -54.55175965 [kJ/mol]
  Total sSAPT0                   -144.70930573 [mEh]     -90.80646029 [kcal/mol]    -379.93422985 [kJ/mol]
  --------------------------------------------------------------------------------------------------------

*** Psi4 exiting successfully. Buy a developer a beer!
