                               Psi4 1.8.2 release

  ==> Input File <==

--------------------------------------------------------------------------
MEMORY 60 GB

molecule dimer {
-1 1
F      0.000000     0.000000     0.000000
--
0 1
O     -1.204616    -0.136785     2.716651
H     -0.764095     0.061585     1.873340
H     -0.834247    -0.946190     3.055175
O     -2.460796     0.663282    -0.931792
H     -1.503367     0.475959    -0.909133
H     -2.899102    -0.181671    -1.051267
O     -0.180675     2.936706    -0.188779
H      0.620744     3.487452    -0.094289
H      0.182580     2.104557    -0.393553
O     -1.696100    -2.154749    -0.360661
H     -0.850512    -1.713972    -0.187306
H     -2.184590    -2.113638     0.460314
O      2.323319     0.756460     1.937201
H      2.977037     0.096931     1.837480
H      1.649232     0.600110     1.235624
O      2.482985     0.570779    -1.259187
H      1.623031     0.282269    -0.820127
H      2.415357     1.553745    -1.408463

units ang
no_reorient
no_com
symmetry c1
}

set {
basis        aug-cc-pVTZ
scf_type     df
}

energy("sapt2+")
--------------------------------------------------------------------------

  //              Dimer HF             //
    Molecular point group: c1
  Charge       = -1
  Multiplicity = 1
  Basis Set: AUG-CC-PVTZ
    Blend: AUG-CC-PVTZ
  Basis Set: (AUG-CC-PVTZ AUX)
    Blend: AUG-CC-PVTZ-JKFIT
  @DF-RHF Final Energy:  -555.91844135782708
    Total Energy =                       -555.9184413578270778
 Dipole X            :         11.6125839          -10.3084485            1.3041355
 Dipole Y            :        -48.0521252           46.8513770           -1.2007482
 Dipole Z            :        -35.9303603           35.7257618           -0.2045985
 Magnitude           :                                                    1.7844960
  //            Monomer A HF           //
    Molecular point group: c1
  Multiplicity = 1
  Basis Set: AUG-CC-PVTZ
    Blend: AUG-CC-PVTZ
  Basis Set: (AUG-CC-PVTZ AUX)
    Blend: AUG-CC-PVTZ-JKFIT
  @DF-RHF Final Energy:   -99.45113719983041
    Total Energy =                        -99.4511371998304128
  //            Monomer B HF           //
    Molecular point group: c1

    Geometry (in Angstrom), charge = 0, multiplicity = 1:

       Center              X                  Y                   Z               Mass
    ------------   -----------------  -----------------  -----------------  -----------------
      Gh(F)           0.000000000000     0.000000000000     0.000000000000    18.998403162730
         O           -1.204616000000    -0.136785000000     2.716651000000    15.994914619570
         H           -0.764095000000     0.061585000000     1.873340000000     1.007825032230
         H           -0.834247000000    -0.946190000000     3.055175000000     1.007825032230
         O           -2.460796000000     0.663282000000    -0.931792000000    15.994914619570
         H           -1.503367000000     0.475959000000    -0.909133000000     1.007825032230
         H           -2.899102000000    -0.181671000000    -1.051267000000     1.007825032230
         O           -0.180675000000     2.936706000000    -0.188779000000    15.994914619570
         H            0.620744000000     3.487452000000    -0.094289000000     1.007825032230
         H            0.182580000000     2.104557000000    -0.393553000000     1.007825032230
         O           -1.696100000000    -2.154749000000    -0.360661000000    15.994914619570
         H           -0.850512000000    -1.713972000000    -0.187306000000     1.007825032230
         H           -2.184590000000    -2.113638000000     0.460314000000     1.007825032230
         O            2.323319000000     0.756460000000     1.937201000000    15.994914619570
         H            2.977037000000     0.096931000000     1.837480000000     1.007825032230
         H            1.649232000000     0.600110000000     1.235624000000     1.007825032230
         O            2.482985000000     0.570779000000    -1.259187000000    15.994914619570
         H            1.623031000000     0.282269000000    -0.820127000000     1.007825032230
         H            2.415357000000     1.553745000000    -1.408463000000     1.007825032230

  Charge       = 0
  Multiplicity = 1
  Basis Set: AUG-CC-PVTZ
    Blend: AUG-CC-PVTZ
  Basis Set: (AUG-CC-PVTZ AUX)
    Blend: AUG-CC-PVTZ-JKFIT

    Orbital Energies [Eh]
    ---------------------

    Doubly Occupied:

       1A    -20.616229     2A    -20.597638     3A    -20.589458
       4A    -20.588715     5A    -20.582738     6A    -20.565259
       7A     -1.382462     8A     -1.380352     9A     -1.375717
      10A     -1.370855    11A     -1.364712    12A     -1.344875
      13A     -0.750912    14A     -0.748902    15A     -0.738643
      16A     -0.738592    17A     -0.735628    18A     -0.712799
      19A     -0.619983    20A     -0.613687    21A     -0.604834
      22A     -0.601090    23A     -0.591542    24A     -0.585878
      25A     -0.550664    26A     -0.534870    27A     -0.532085
      28A     -0.529287    29A     -0.522440    30A     -0.505150

  @DF-RHF Final Energy:  -456.32894061720293

   => Energetics <=

    Nuclear Repulsion Energy =            250.9066467005666254
    One-Electron Energy =               -1128.5191730473377447
    Two-Electron Energy =                 421.2835857295681876
    Total Energy =                       -456.3289406172029317
 Dipole X            :         11.5677240          -10.3084485            1.2592755
 Dipole Y            :        -47.8253888           46.8513770           -0.9740118
 Dipole Z            :        -35.8171435           35.7257618           -0.0913816
 Magnitude           :                                                    1.5946236

    SAPT Results
  --------------------------------------------------------------------------------------------------------
    Electrostatics               -159.41866433 [mEh]    -100.03672216 [kcal/mol]    -418.55364552 [kJ/mol]
      Elst10,r                   -158.36862972 [mEh]     -99.37781550 [kcal/mol]    -415.79678006 [kJ/mol]
      Elst12,r                     -1.05003460 [mEh]      -0.65890666 [kcal/mol]      -2.75686547 [kJ/mol]

    Exchange                       92.51793969 [mEh]      58.05588365 [kcal/mol]     242.90581719 [kJ/mol]
      Exch10                       67.84931136 [mEh]      42.57608567 [kcal/mol]     178.13834244 [kJ/mol]
      Exch10(S^2)                  68.54328783 [mEh]      43.01156248 [kcal/mol]     179.96037740 [kJ/mol]
      Exch11(S^2)                   1.42173191 [mEh]       0.89215024 [kcal/mol]       3.73275662 [kJ/mol]
      Exch12(S^2)                  23.24689641 [mEh]      14.58764773 [kcal/mol]      61.03471812 [kJ/mol]

    Induction                     -57.82444148 [mEh]     -36.28538484 [kcal/mol]    -151.81805018 [kJ/mol]
      Ind20,r                     -61.97611091 [mEh]     -38.89059674 [kcal/mol]    -162.71825678 [kJ/mol]
      Ind22                       -14.51797721 [mEh]      -9.11016824 [kcal/mol]     -38.11694391 [kJ/mol]
      Exch-Ind20,r                 19.37133523 [mEh]      12.15569637 [kcal/mol]      50.85943363 [kJ/mol]
      Exch-Ind22                    4.53775817 [mEh]       2.84748624 [kcal/mol]      11.91388242 [kJ/mol]
      delta HF,r (2)               -5.23944675 [mEh]      -3.28780247 [kcal/mol]     -13.75616555 [kJ/mol]

    Dispersion                    -30.67086227 [mEh]     -19.24625664 [kcal/mol]     -80.52633779 [kJ/mol]
      Disp20                      -28.50372890 [mEh]     -17.88635993 [kcal/mol]     -74.83652993 [kJ/mol]
      Disp21                        0.46215364 [mEh]       0.29000579 [kcal/mol]       1.21338422 [kJ/mol]
      Disp22 (SDQ)                 -3.66382936 [mEh]      -2.29908763 [kcal/mol]      -9.61938266 [kJ/mol]
      Disp22 (T)                   -5.40358115 [mEh]      -3.39079836 [kcal/mol]     -14.18710034 [kJ/mol]
      Est. Disp22 (T)              -6.33458567 [mEh]      -3.97501252 [kcal/mol]     -16.63145239 [kJ/mol]
      Exch-Disp20                   7.36912803 [mEh]       4.62419765 [kcal/mol]      19.34764297 [kJ/mol]

  Total HF                       -138.36354079 [mEh]     -86.82443267 [kcal/mol]    -363.27342631 [kJ/mol]
  Total SAPT0                    -159.49814167 [mEh]    -100.08659495 [kcal/mol]    -418.76231326 [kJ/mol]
  Total SAPT2                    -145.85976699 [mEh]     -91.52838563 [kcal/mol]    -382.95476547 [kJ/mol]
  Total SAPT2+                   -155.39602838 [mEh]     -97.51248000 [kcal/mol]    -407.99221631 [kJ/mol]

  Special recipe for scaled SAPT0 (see Manual):
    Electrostatics sSAPT0        -158.36862972 [mEh]     -99.37781550 [kcal/mol]    -415.79678006 [kJ/mol]
    Exchange sSAPT0                67.84931136 [mEh]      42.57608567 [kcal/mol]     178.13834244 [kJ/mol]
    Induction sSAPT0              -48.42666904 [mEh]     -30.38819361 [kcal/mol]    -127.14420206 [kJ/mol]
    Dispersion sSAPT0             -21.35617175 [mEh]     -13.40120010 [kcal/mol]     -56.07062120 [kJ/mol]
  Total sSAPT0                   -160.30215915 [mEh]    -100.59112354 [kcal/mol]    -420.87326087 [kJ/mol]
  --------------------------------------------------------------------------------------------------------

*** Psi4 exiting successfully. Buy a developer a beer!
