                               Psi4 1.8.2 release

  ==> Input File <==

--------------------------------------------------------------------------
MEMORY 60 GB

molecule dimer {
-1 1
F      0.000000     0.000000     0.000000
--
0 1
O     -1.634092    -2.280820    -0.139745
H     -2.469094    -2.598153    -0.454292
H     -1.459954    -1.358967    -0.387524
O      2.308208    -1.014352     1.406738
H      2.138362    -1.947872     1.369305
H      1.553052    -0.587244     0.905967
O     -0.221383     0.329741     2.737359
H     -0.415990     0.182845     1.824673
H      0.050573     1.283931     2.640379
O      1.357013    -0.222007    -2.440875
H      1.051868    -0.181679    -1.581215
H      0.660440    -0.731668    -2.801612
O     -1.883257     1.778764    -0.837831
H     -1.474462     2.655647    -0.726004
H     -1.106142     1.188873    -0.668005

units ang
no_reorient
no_com
symmetry c1
}

set {
basis        aug-cc-pVTZ
scf_type     df
}

energy("sapt2+")
--------------------------------------------------------------------------

  //              Dimer HF             //
    Molecular point group: c1
  Charge       = -1
  Multiplicity = 1
  Basis Set: AUG-CC-PVTZ
    Blend: AUG-CC-PVTZ
  Basis Set: (AUG-CC-PVTZ AUX)
    Blend: AUG-CC-PVTZ-JKFIT
  @DF-RHF Final Energy:  -479.85169802701216
    Total Energy =                       -479.8516980270121621
 Dipole X            :          3.0306649           -3.8917681           -0.8611033
 Dipole Y            :         25.7063245          -25.2536933            0.4526311
 Dipole Z            :        -12.0717665           11.2001044           -0.8716621
 Magnitude           :                                                    1.3062039
  //            Monomer A HF           //
    Molecular point group: c1
  Multiplicity = 1
  Basis Set: AUG-CC-PVTZ
    Blend: AUG-CC-PVTZ
  Basis Set: (AUG-CC-PVTZ AUX)
    Blend: AUG-CC-PVTZ-JKFIT
  @DF-RHF Final Energy:   -99.45110637333353
    Total Energy =                        -99.4511063733335448
  //            Monomer B HF           //
    Molecular point group: c1

    Geometry (in Angstrom), charge = 0, multiplicity = 1:

       Center              X                  Y                   Z               Mass
    ------------   -----------------  -----------------  -----------------  -----------------
      Gh(F)           0.000000000000     0.000000000000     0.000000000000    18.998403162730
         O           -1.634092000000    -2.280820000000    -0.139745000000    15.994914619570
         H           -2.469094000000    -2.598153000000    -0.454292000000     1.007825032230
         H           -1.459954000000    -1.358967000000    -0.387524000000     1.007825032230
         O            2.308208000000    -1.014352000000     1.406738000000    15.994914619570
         H            2.138362000000    -1.947872000000     1.369305000000     1.007825032230
         H            1.553052000000    -0.587244000000     0.905967000000     1.007825032230
         O           -0.221383000000     0.329741000000     2.737359000000    15.994914619570
         H           -0.415990000000     0.182845000000     1.824673000000     1.007825032230
         H            0.050573000000     1.283931000000     2.640379000000     1.007825032230
         O            1.357013000000    -0.222007000000    -2.440875000000    15.994914619570
         H            1.051868000000    -0.181679000000    -1.581215000000     1.007825032230
         H            0.660440000000    -0.731668000000    -2.801612000000     1.007825032230
         O           -1.883257000000     1.778764000000    -0.837831000000    15.994914619570
         H           -1.474462000000     2.655647000000    -0.726004000000     1.007825032230
         H           -1.106142000000     1.188873000000    -0.668005000000     1.007825032230

  Charge       = 0
  Multiplicity = 1
  Basis Set: AUG-CC-PVTZ
    Blend: AUG-CC-PVTZ
  Basis Set: (AUG-CC-PVTZ AUX)
    Blend: AUG-CC-PVTZ-JKFIT

    Orbital Energies [Eh]
    ---------------------

    Doubly Occupied:

       1A    -20.606227     2A    -20.589114     3A    -20.584704
       4A    -20.583048     5A    -20.571424     6A     -1.397815
       7A     -1.376648     8A     -1.372690     9A     -1.364177
      10A     -1.345717    11A     -0.759802    12A     -0.743389
      13A     -0.730819    14A     -0.714027    15A     -0.703692
      16A     -0.624383    17A     -0.619435    18A     -0.606906
      19A     -0.593588    20A     -0.580780    21A     -0.542342
      22A     -0.534952    23A     -0.532982    24A     -0.527386
      25A     -0.503298

  @DF-RHF Final Energy:  -380.27332005311769

   => Energetics <=

    Nuclear Repulsion Energy =            173.1511176740359303
    One-Electron Energy =                -868.6301748231263673
    Two-Electron Energy =                 315.2057370959727223
    Total Energy =                       -380.2733200531176863
 Dipole X            :          2.9530247           -3.8917681           -0.9387434
 Dipole Y            :         25.6693798          -25.2536933            0.4156865
 Dipole Z            :        -12.0100575           11.2001044           -0.8099531
 Magnitude           :                                                    1.3076920

    SAPT Results
  --------------------------------------------------------------------------------------------------------
    Electrostatics               -152.57312469 [mEh]     -95.74108119 [kcal/mol]    -400.58068369 [kJ/mol]
      Elst10,r                   -151.47456458 [mEh]     -95.05172431 [kcal/mol]    -397.69641451 [kJ/mol]
      Elst12,r                     -1.09856011 [mEh]      -0.68935688 [kcal/mol]      -2.88426918 [kJ/mol]

    Exchange                       95.04879703 [mEh]      59.64402061 [kcal/mol]     249.55058222 [kJ/mol]
      Exch10                       70.91329820 [mEh]      44.49876644 [kcal/mol]     186.18283878 [kJ/mol]
      Exch10(S^2)                  71.57696102 [mEh]      44.91522114 [kcal/mol]     187.92528526 [kJ/mol]
      Exch11(S^2)                   1.20587780 [mEh]       0.75669975 [kcal/mol]       3.16603174 [kJ/mol]
      Exch12(S^2)                  22.92962102 [mEh]      14.38855442 [kcal/mol]      60.20171170 [kJ/mol]

    Induction                     -56.22486904 [mEh]     -35.28163798 [kcal/mol]    -147.61837333 [kJ/mol]
      Ind20,r                     -61.12705614 [mEh]     -38.35780683 [kcal/mol]    -160.48906378 [kJ/mol]
      Ind22                       -14.30545711 [mEh]      -8.97680986 [kcal/mol]     -37.55897246 [kJ/mol]
      Exch-Ind20,r                 20.47155650 [mEh]      12.84609565 [kcal/mol]      53.74806419 [kJ/mol]
      Exch-Ind22                    4.79092225 [mEh]       3.00634910 [kcal/mol]      12.57856464 [kJ/mol]
      delta HF,r (2)               -6.05483455 [mEh]      -3.79946604 [kcal/mol]     -15.89696592 [kJ/mol]

    Dispersion                    -29.48386054 [mEh]     -18.50140181 [kcal/mol]     -77.40986517 [kJ/mol]
      Disp20                      -27.73167176 [mEh]     -17.40188675 [kcal/mol]     -72.80949418 [kJ/mol]
      Disp21                        0.41874043 [mEh]       0.26276359 [kcal/mol]       1.09940286 [kJ/mol]
      Disp22 (SDQ)                 -3.42813225 [mEh]      -2.15118547 [kcal/mol]      -9.00055999 [kJ/mol]
      Disp22 (T)                   -5.14355473 [mEh]      -3.22762932 [kcal/mol]     -13.50440108 [kJ/mol]
      Est. Disp22 (T)              -6.04309692 [mEh]      -3.79210057 [kcal/mol]     -15.86614878 [kJ/mol]
      Exch-Disp20                   7.30029996 [mEh]       4.58100739 [kcal/mol]      19.16693492 [kJ/mol]

  Total HF                       -127.27160056 [mEh]     -79.86413509 [kcal/mol]    -334.15154124 [kJ/mol]
  Total SAPT0                    -147.70297236 [mEh]     -92.68501446 [kcal/mol]    -387.79410050 [kJ/mol]
  Total SAPT2                    -134.18056850 [mEh]     -84.19957793 [kcal/mol]    -352.29103406 [kJ/mol]
  Total SAPT2+                   -143.23305724 [mEh]     -89.88010038 [kcal/mol]    -376.05833997 [kJ/mol]

  Special recipe for scaled SAPT0 (see Manual):
    Electrostatics sSAPT0        -151.47456458 [mEh]     -95.05172431 [kcal/mol]    -397.69641451 [kJ/mol]
    Exchange sSAPT0                70.91329820 [mEh]      44.49876644 [kcal/mol]     186.18283878 [kJ/mol]
    Induction sSAPT0              -47.27450854 [mEh]     -29.66520198 [kcal/mol]    -124.11920506 [kJ/mol]
    Dispersion sSAPT0             -20.63256031 [mEh]     -12.94712706 [kcal/mol]     -54.17077963 [kJ/mol]
  Total sSAPT0                   -148.46833522 [mEh]     -93.16528691 [kcal/mol]    -389.80356043 [kJ/mol]
  --------------------------------------------------------------------------------------------------------

*** Psi4 exiting successfully. Buy a developer a beer!
