                               Psi4 1.8.2 release

  ==> Input File <==

--------------------------------------------------------------------------
MEMORY 60 GB

molecule dimer {
-1 1
F      0.000000     0.000000     0.000000
--
0 1
O      2.779088    -0.118830    -0.906542
H      2.861577    -0.902793    -1.461637
H      1.786663    -0.046131    -0.692626
O     -1.341633     2.261718    -1.186341
H     -1.115566     2.466266    -2.140941
H     -0.840947     1.535422    -0.871680
O      1.697414    -0.600219     2.291858
H      2.307780    -1.309760     2.178210
H      0.932232    -0.756904     1.737642
O     -1.062014    -1.090209    -2.427699
H     -1.550385    -0.449677    -2.957604
H     -0.707907    -0.582861    -1.692225
O     -2.678698    -0.614221     0.746640
H     -3.546811    -0.478083     0.421902
H     -2.030516    -0.148316     0.196031
O     -0.115018     2.307183     1.459312
H      0.071014     1.562964     0.988675
H     -1.079045     2.401109     1.137642

units ang
no_reorient
no_com
symmetry c1
}

set {
basis        aug-cc-pVTZ
scf_type     df
}

energy("sapt2+")
--------------------------------------------------------------------------

  //              Dimer HF             //
    Molecular point group: c1
  Charge       = -1
  Multiplicity = 1
  Basis Set: AUG-CC-PVTZ
    Blend: AUG-CC-PVTZ
  Basis Set: (AUG-CC-PVTZ AUX)
    Blend: AUG-CC-PVTZ-JKFIT
  @DF-RHF Final Energy:  -555.90579950295103
    Total Energy =                       -555.9057995029510266
 Dipole X            :         15.5666923          -16.4005532           -0.8338609
 Dipole Y            :        -39.5186587           38.6536147           -0.8650440
 Dipole Z            :          4.4252340           -6.3093930           -1.8841591
 Magnitude           :                                                    2.2346545
  //            Monomer A HF           //
    Molecular point group: c1
  Multiplicity = 1
  Basis Set: AUG-CC-PVTZ
    Blend: AUG-CC-PVTZ
  Basis Set: (AUG-CC-PVTZ AUX)
    Blend: AUG-CC-PVTZ-JKFIT
  @DF-RHF Final Energy:   -99.45113738307154
    Total Energy =                        -99.4511373830715399
  //            Monomer B HF           //
    Molecular point group: c1

    Geometry (in Angstrom), charge = 0, multiplicity = 1:

       Center              X                  Y                   Z               Mass
    ------------   -----------------  -----------------  -----------------  -----------------
      Gh(F)           0.000000000000     0.000000000000     0.000000000000    18.998403162730
         O            2.779088000000    -0.118830000000    -0.906542000000    15.994914619570
         H            2.861577000000    -0.902793000000    -1.461637000000     1.007825032230
         H            1.786663000000    -0.046131000000    -0.692626000000     1.007825032230
         O           -1.341633000000     2.261718000000    -1.186341000000    15.994914619570
         H           -1.115566000000     2.466266000000    -2.140941000000     1.007825032230
         H           -0.840947000000     1.535422000000    -0.871680000000     1.007825032230
         O            1.697414000000    -0.600219000000     2.291858000000    15.994914619570
         H            2.307780000000    -1.309760000000     2.178210000000     1.007825032230
         H            0.932232000000    -0.756904000000     1.737642000000     1.007825032230
         O           -1.062014000000    -1.090209000000    -2.427699000000    15.994914619570
         H           -1.550385000000    -0.449677000000    -2.957604000000     1.007825032230
         H           -0.707907000000    -0.582861000000    -1.692225000000     1.007825032230
         O           -2.678698000000    -0.614221000000     0.746640000000    15.994914619570
         H           -3.546811000000    -0.478083000000     0.421902000000     1.007825032230
         H           -2.030516000000    -0.148316000000     0.196031000000     1.007825032230
         O           -0.115018000000     2.307183000000     1.459312000000    15.994914619570
         H            0.071014000000     1.562964000000     0.988675000000     1.007825032230
         H           -1.079045000000     2.401109000000     1.137642000000     1.007825032230

  Charge       = 0
  Multiplicity = 1
  Basis Set: AUG-CC-PVTZ
    Blend: AUG-CC-PVTZ
  Basis Set: (AUG-CC-PVTZ AUX)
    Blend: AUG-CC-PVTZ-JKFIT

    Orbital Energies [Eh]
    ---------------------

    Doubly Occupied:

       1A    -20.613914     2A    -20.605344     3A    -20.590055
       4A    -20.584624     5A    -20.569795     6A    -20.565186
       7A     -1.395650     8A     -1.387836     9A     -1.372584
      10A     -1.362664    11A     -1.355996    12A     -1.353494
      13A     -0.777616    14A     -0.756086    15A     -0.750193
      16A     -0.732958    17A     -0.718430    18A     -0.701757
      19A     -0.626650    20A     -0.614317    21A     -0.597396
      22A     -0.594468    23A     -0.592676    24A     -0.577726
      25A     -0.556495    26A     -0.547235    27A     -0.528365
      28A     -0.527079    29A     -0.509684    30A     -0.507660

  @DF-RHF Final Energy:  -456.31924265861073

   => Energetics <=

    Nuclear Repulsion Energy =            250.2997834187289641
    One-Electron Energy =               -1127.2901811150318281
    Two-Electron Energy =                 420.6711550376920741
    Total Energy =                       -456.3192426586107331
 Dipole X            :         15.4644932          -16.4005532           -0.9360600
 Dipole Y            :        -39.2223444           38.6536147           -0.5687298
 Dipole Z            :          4.2122093           -6.3093930           -2.0971837
 Magnitude           :                                                    2.3659758

    SAPT Results
  --------------------------------------------------------------------------------------------------------
    Electrostatics               -154.23896444 [mEh]     -96.78641141 [kcal/mol]    -404.95434535 [kJ/mol]
      Elst10,r                   -152.91925787 [mEh]     -95.95828303 [kcal/mol]    -401.48945621 [kJ/mol]
      Elst12,r                     -1.31970658 [mEh]      -0.82812838 [kcal/mol]      -3.46488914 [kJ/mol]

    Exchange                       90.07162730 [mEh]      56.52079945 [kcal/mol]     236.48302489 [kJ/mol]
      Exch10                       65.87102964 [mEh]      41.33469515 [kcal/mol]     172.94436451 [kJ/mol]
      Exch10(S^2)                  66.49136897 [mEh]      41.72396395 [kcal/mol]     174.57306519 [kJ/mol]
      Exch11(S^2)                   1.23042863 [mEh]       0.77210562 [kcal/mol]       3.23048992 [kJ/mol]
      Exch12(S^2)                  22.97016902 [mEh]      14.41399868 [kcal/mol]      60.30817046 [kJ/mol]

    Induction                     -58.57501326 [mEh]     -36.75637574 [kcal/mol]    -153.78867611 [kJ/mol]
      Ind20,r                     -62.10323928 [mEh]     -38.97037100 [kcal/mol]    -163.05203227 [kJ/mol]
      Ind22                       -14.73770563 [mEh]      -9.24804991 [kcal/mol]     -38.69384081 [kJ/mol]
      Exch-Ind20,r                 19.10551497 [mEh]      11.98889164 [kcal/mol]      50.16152264 [kJ/mol]
      Exch-Ind22                    4.53392543 [mEh]       2.84508116 [kcal/mol]      11.90381956 [kJ/mol]
      delta HF,r (2)               -5.37350874 [mEh]      -3.37192764 [kcal/mol]     -14.10814524 [kJ/mol]

    Dispersion                    -30.42250676 [mEh]     -19.09041121 [kcal/mol]     -79.87428051 [kJ/mol]
      Disp20                      -28.10639088 [mEh]     -17.63702655 [kcal/mol]     -73.79331909 [kJ/mol]
      Disp21                        0.44359698 [mEh]       0.27836131 [kcal/mol]       1.16466372 [kJ/mol]
      Disp22 (SDQ)                 -3.61048594 [mEh]      -2.26561413 [kcal/mol]      -9.47932952 [kJ/mol]
      Disp22 (T)                   -5.26801066 [mEh]      -3.30572660 [kcal/mol]     -13.83116008 [kJ/mol]
      Est. Disp22 (T)              -6.20744187 [mEh]      -3.89522858 [kcal/mol]     -16.29763640 [kJ/mol]
      Exch-Disp20                   7.05821494 [mEh]       4.42909675 [kcal/mol]      18.53134078 [kJ/mol]

  Total HF                       -135.41946127 [mEh]     -84.97699488 [kcal/mol]    -355.54374658 [kJ/mol]
  Total SAPT0                    -156.46763721 [mEh]     -98.18492469 [kcal/mol]    -410.80572489 [kJ/mol]
  Total SAPT2                    -143.79052634 [mEh]     -90.22991752 [kcal/mol]    -377.52197489 [kJ/mol]
  Total SAPT2+                   -153.16485717 [mEh]     -96.11239892 [kcal/mol]    -402.13427709 [kJ/mol]

  Special recipe for scaled SAPT0 (see Manual):
    Electrostatics sSAPT0        -152.91925787 [mEh]     -95.95828303 [kcal/mol]    -401.48945621 [kJ/mol]
    Exchange sSAPT0                65.87102964 [mEh]      41.33469515 [kcal/mol]     172.94436451 [kJ/mol]
    Induction sSAPT0              -48.90100131 [mEh]     -30.68584160 [kcal/mol]    -128.38956126 [kJ/mol]
    Dispersion sSAPT0             -21.24389002 [mEh]     -13.33074225 [kcal/mol]     -55.77582556 [kJ/mol]
  Total sSAPT0                   -157.19311955 [mEh]     -98.64017173 [kcal/mol]    -412.71047853 [kJ/mol]
  --------------------------------------------------------------------------------------------------------

*** Psi4 exiting successfully. Buy a developer a beer!
