                               Psi4 1.8.2 release

  ==> Input File <==

--------------------------------------------------------------------------
MEMORY 60 GB

molecule dimer {
-1 1
F      0.000000     0.000000     0.000000
--
0 1
O     -2.059057     0.556806    -1.512511
H     -1.631697     0.750314    -2.355200
H     -1.337052     0.357530    -0.924989
O     -1.092632     0.531104     2.514755
H     -0.595685     0.472327     1.701018
H     -0.807881     1.360419     2.908593
O      1.853987     2.045109    -0.296217
H      1.205149     1.477398     0.090440
H      1.333577     2.420067    -1.019413

units ang
no_reorient
no_com
symmetry c1
}

set {
basis        aug-cc-pVTZ
scf_type     df
}

energy("sapt2+")
--------------------------------------------------------------------------

  //              Dimer HF             //
    Molecular point group: c1
  Charge       = -1
  Multiplicity = 1
  Basis Set: AUG-CC-PVTZ
    Blend: AUG-CC-PVTZ
  Basis Set: (AUG-CC-PVTZ AUX)
    Blend: AUG-CC-PVTZ-JKFIT
  @DF-RHF Final Energy:  -327.71341667404613
    Total Energy =                       -327.7134166740461296
 Dipole X            :         23.8570464          -23.0833920            0.7736544
 Dipole Y            :        -60.4639966           60.2864340           -0.1775625
 Dipole Z            :        -12.0760052           11.4303203           -0.6456849
 Magnitude           :                                                    1.0232197
  //            Monomer A HF           //
    Molecular point group: c1
  Multiplicity = 1
  Basis Set: AUG-CC-PVTZ
    Blend: AUG-CC-PVTZ
  Basis Set: (AUG-CC-PVTZ AUX)
    Blend: AUG-CC-PVTZ-JKFIT
  @DF-RHF Final Energy:   -99.45100538290487
    Total Energy =                        -99.4510053829048672
  //            Monomer B HF           //
    Molecular point group: c1

    Geometry (in Angstrom), charge = 0, multiplicity = 1:

       Center              X                  Y                   Z               Mass
    ------------   -----------------  -----------------  -----------------  -----------------
      Gh(F)           0.000000000000     0.000000000000     0.000000000000    18.998403162730
         O           -2.059057000000     0.556806000000    -1.512511000000    15.994914619570
         H           -1.631697000000     0.750314000000    -2.355200000000     1.007825032230
         H           -1.337052000000     0.357530000000    -0.924989000000     1.007825032230
         O           -1.092632000000     0.531104000000     2.514755000000    15.994914619570
         H           -0.595685000000     0.472327000000     1.701018000000     1.007825032230
         H           -0.807881000000     1.360419000000     2.908593000000     1.007825032230
         O            1.853987000000     2.045109000000    -0.296217000000    15.994914619570
         H            1.205149000000     1.477398000000     0.090440000000     1.007825032230
         H            1.333577000000     2.420067000000    -1.019413000000     1.007825032230

  Charge       = 0
  Multiplicity = 1
  Basis Set: AUG-CC-PVTZ
    Blend: AUG-CC-PVTZ
  Basis Set: (AUG-CC-PVTZ AUX)
    Blend: AUG-CC-PVTZ-JKFIT

    Orbital Energies [Eh]
    ---------------------

    Doubly Occupied:

       1A    -20.589529     2A    -20.583201     3A    -20.580142
       4A     -1.378466     5A     -1.368813     6A     -1.365639
       7A     -0.733784     8A     -0.729873     9A     -0.727787
      10A     -0.614605    11A     -0.599562    12A     -0.596551
      13A     -0.531832    14A     -0.525521    15A     -0.522125

  @DF-RHF Final Energy:  -228.17493992557394

   => Energetics <=

    Nuclear Repulsion Energy =             65.9966198128190911
    One-Electron Energy =                -445.4482517639755770
    Two-Electron Energy =                 151.2766920255825767
    Total Energy =                       -228.1749399255739377
 Dipole X            :         23.5661682          -23.0833920            0.4827762
 Dipole Y            :        -59.8882296           60.2864340            0.3982044
 Dipole Z            :        -12.0808659           11.4303203           -0.6505456
 Magnitude           :                                                    0.9026899

    SAPT Results
  --------------------------------------------------------------------------------------------------------
    Electrostatics               -107.77520905 [mEh]     -67.62996472 [kcal/mol]    -282.96377239 [kJ/mol]
      Elst10,r                   -107.11206811 [mEh]     -67.21383749 [kcal/mol]    -281.22269607 [kJ/mol]
      Elst12,r                     -0.66314095 [mEh]      -0.41612723 [kcal/mol]      -1.74107632 [kJ/mol]

    Exchange                       74.52305415 [mEh]      46.76392250 [kcal/mol]     195.66025172 [kJ/mol]
      Exch10                       57.37223830 [mEh]      36.00162306 [kcal/mol]     150.63079089 [kJ/mol]
      Exch10(S^2)                  57.43131591 [mEh]      36.03869483 [kcal/mol]     150.78589915 [kJ/mol]
      Exch11(S^2)                   0.54171787 [mEh]       0.33993310 [kcal/mol]       1.42228007 [kJ/mol]
      Exch12(S^2)                  16.60909799 [mEh]      10.42236634 [kcal/mol]      43.60718076 [kJ/mol]

    Induction                     -44.66302613 [mEh]     -28.02647202 [kcal/mol]    -117.26275895 [kJ/mol]
      Ind20,r                     -48.60972856 [mEh]     -30.50306519 [kcal/mol]    -127.62482475 [kJ/mol]
      Ind22                       -11.26037438 [mEh]      -7.06599160 [kcal/mol]     -29.56410885 [kJ/mol]
      Exch-Ind20,r                 18.68728953 [mEh]      11.72645122 [kcal/mol]      49.06347190 [kJ/mol]
      Exch-Ind22                    4.32888400 [mEh]       2.71641572 [kcal/mol]      11.36548338 [kJ/mol]
      delta HF,r (2)               -7.80909673 [mEh]      -4.90028218 [kcal/mol]     -20.50278063 [kJ/mol]

    Dispersion                    -20.01597343 [mEh]     -12.56021295 [kcal/mol]     -52.55193100 [kJ/mol]
      Disp20                      -19.25364944 [mEh]     -12.08184743 [kcal/mol]     -50.55044965 [kJ/mol]
      Disp21                        0.27192323 [mEh]       0.17063440 [kcal/mol]       0.71393434 [kJ/mol]
      Disp22 (SDQ)                 -2.25015506 [mEh]      -1.41199362 [kcal/mol]      -5.90778130 [kJ/mol]
      Disp22 (T)                   -3.44387120 [mEh]      -2.16106181 [kcal/mol]      -9.04188260 [kJ/mol]
      Est. Disp22 (T)              -4.06632299 [mEh]      -2.55165620 [kcal/mol]     -10.67612955 [kJ/mol]
      Exch-Disp20                   5.28223084 [mEh]       3.31464990 [kcal/mol]      13.86849516 [kJ/mol]

  Total HF                        -87.47136557 [mEh]     -54.88911058 [kcal/mol]    -229.65603866 [kJ/mol]
  Total SAPT0                    -101.44278417 [mEh]     -63.65630811 [kcal/mol]    -266.33799315 [kJ/mol]
  Total SAPT2                     -91.88659964 [mEh]     -57.65971178 [kcal/mol]    -241.24823411 [kJ/mol]
  Total SAPT2+                    -97.93115446 [mEh]     -61.45272720 [kcal/mol]    -257.11821062 [kJ/mol]

  Special recipe for scaled SAPT0 (see Manual):
    Electrostatics sSAPT0        -107.11206811 [mEh]     -67.21383749 [kcal/mol]    -281.22269607 [kJ/mol]
    Exchange sSAPT0                57.37223830 [mEh]      36.00162306 [kcal/mol]     150.63079089 [kJ/mol]
    Induction sSAPT0              -37.78914537 [mEh]     -23.71304672 [kcal/mol]     -99.21538749 [kJ/mol]
    Dispersion sSAPT0             -13.98770279 [mEh]      -8.77741602 [kcal/mol]     -36.72470861 [kJ/mol]
  Total sSAPT0                   -101.51667797 [mEh]     -63.70267717 [kcal/mol]    -266.53200128 [kJ/mol]
  --------------------------------------------------------------------------------------------------------

*** Psi4 exiting successfully. Buy a developer a beer!
