                               Psi4 1.8.2 release

  ==> Input File <==

--------------------------------------------------------------------------
MEMORY 60 GB

molecule dimer {
-1 1
F      0.000000     0.000000     0.000000
--
0 1
O     -1.051876     0.397188    -2.664526
H     -0.485530    -0.258494    -3.098839
H     -0.784316     0.374530    -1.766571
O     -0.548980    -2.889172    -0.876141
H     -0.402675    -1.956604    -0.860721
H      0.114136    -3.180631    -1.543791
O      0.945837     1.626921     2.124282
H      0.821758     1.095363     1.318237
H      0.313788     1.263948     2.804817
O      2.426736     0.456517    -1.371097
H      2.283500     1.268623    -1.938041
H      1.590392     0.293672    -0.864561
O     -2.021952    -0.732353     1.474827
H     -2.053094    -1.698175     1.306604
H     -1.260753    -0.350683     0.971493
O      2.023011    -1.613709     1.503423
H      1.169042    -1.189349     1.339393
H      1.933657    -2.225891     2.263621

units ang
no_reorient
no_com
symmetry c1
}

set {
basis        aug-cc-pVTZ
scf_type     df
}

energy("sapt2+")
--------------------------------------------------------------------------

  //              Dimer HF             //
    Molecular point group: c1
  Charge       = -1
  Multiplicity = 1
  Basis Set: AUG-CC-PVTZ
    Blend: AUG-CC-PVTZ
  Basis Set: (AUG-CC-PVTZ AUX)
    Blend: AUG-CC-PVTZ-JKFIT
  @DF-RHF Final Energy:  -555.92454226163693
    Total Energy =                       -555.9245422616369297
 Dipole X            :        -33.1538736           32.9230221           -0.2308515
 Dipole Y            :         53.5629419          -54.0472160           -0.4842741
 Dipole Z            :         -3.1394538            2.7548144           -0.3846394
 Magnitude           :                                                    0.6601221
  //            Monomer A HF           //
    Molecular point group: c1
  Multiplicity = 1
  Basis Set: AUG-CC-PVTZ
    Blend: AUG-CC-PVTZ
  Basis Set: (AUG-CC-PVTZ AUX)
    Blend: AUG-CC-PVTZ-JKFIT
  @DF-RHF Final Energy:   -99.45115557814843
    Total Energy =                        -99.4511555781484162
  //            Monomer B HF           //
    Molecular point group: c1

    Geometry (in Angstrom), charge = 0, multiplicity = 1:

       Center              X                  Y                   Z               Mass
    ------------   -----------------  -----------------  -----------------  -----------------
      Gh(F)           0.000000000000     0.000000000000     0.000000000000    18.998403162730
         O           -1.051876000000     0.397188000000    -2.664526000000    15.994914619570
         H           -0.485530000000    -0.258494000000    -3.098839000000     1.007825032230
         H           -0.784316000000     0.374530000000    -1.766571000000     1.007825032230
         O           -0.548980000000    -2.889172000000    -0.876141000000    15.994914619570
         H           -0.402675000000    -1.956604000000    -0.860721000000     1.007825032230
         H            0.114136000000    -3.180631000000    -1.543791000000     1.007825032230
         O            0.945837000000     1.626921000000     2.124282000000    15.994914619570
         H            0.821758000000     1.095363000000     1.318237000000     1.007825032230
         H            0.313788000000     1.263948000000     2.804817000000     1.007825032230
         O            2.426736000000     0.456517000000    -1.371097000000    15.994914619570
         H            2.283500000000     1.268623000000    -1.938041000000     1.007825032230
         H            1.590392000000     0.293672000000    -0.864561000000     1.007825032230
         O           -2.021952000000    -0.732353000000     1.474827000000    15.994914619570
         H           -2.053094000000    -1.698175000000     1.306604000000     1.007825032230
         H           -1.260753000000    -0.350683000000     0.971493000000     1.007825032230
         O            2.023011000000    -1.613709000000     1.503423000000    15.994914619570
         H            1.169042000000    -1.189349000000     1.339393000000     1.007825032230
         H            1.933657000000    -2.225891000000     2.263621000000     1.007825032230

  Charge       = 0
  Multiplicity = 1
  Basis Set: AUG-CC-PVTZ
    Blend: AUG-CC-PVTZ
  Basis Set: (AUG-CC-PVTZ AUX)
    Blend: AUG-CC-PVTZ-JKFIT

    Orbital Energies [Eh]
    ---------------------

    Doubly Occupied:

       1A    -20.600267     2A    -20.599447     3A    -20.596054
       4A    -20.595591     5A    -20.588886     6A    -20.584322
       7A     -1.385568     8A     -1.382673     9A     -1.367123
      10A     -1.359542    11A     -1.355723    12A     -1.355279
      13A     -0.749247    14A     -0.742017    15A     -0.739818
      16A     -0.736368    17A     -0.725398    18A     -0.721710
      19A     -0.622009    20A     -0.612917    21A     -0.601301
      22A     -0.594316    23A     -0.591289    24A     -0.586979
      25A     -0.543683    26A     -0.537721    27A     -0.536040
      28A     -0.529534    29A     -0.527489    30A     -0.517699

  @DF-RHF Final Energy:  -456.32785058550911

   => Energetics <=

    Nuclear Repulsion Energy =            248.7111475927857782
    One-Electron Energy =               -1124.1059708732857416
    Two-Electron Energy =                 419.0669726949908522
    Total Energy =                       -456.3278505855091112
 Dipole X            :        -33.0449880           32.9230221           -0.1219659
 Dipole Y            :         53.2694453          -54.0472160           -0.7777707
 Dipole Z            :         -3.0278778            2.7548144           -0.2730634
 Magnitude           :                                                    0.8332866

    SAPT Results
  --------------------------------------------------------------------------------------------------------
    Electrostatics               -174.34156698 [mEh]    -109.40098495 [kcal/mol]    -457.73372104 [kJ/mol]
      Elst10,r                   -173.72596772 [mEh]    -109.01469058 [kcal/mol]    -456.11746541 [kJ/mol]
      Elst12,r                     -0.61559926 [mEh]      -0.38629437 [kcal/mol]      -1.61625564 [kJ/mol]

    Exchange                      109.55148789 [mEh]      68.74459652 [kcal/mol]     287.62739182 [kJ/mol]
      Exch10                       81.90028712 [mEh]      51.39320607 [kcal/mol]     215.02917420 [kJ/mol]
      Exch10(S^2)                  82.65572667 [mEh]      51.86725155 [kcal/mol]     217.01258048 [kJ/mol]
      Exch11(S^2)                   1.74518576 [mEh]       1.09512060 [kcal/mol]       4.58198457 [kJ/mol]
      Exch12(S^2)                  25.90601501 [mEh]      16.25626985 [kcal/mol]      68.01623304 [kJ/mol]

    Induction                     -64.52238663 [mEh]     -40.48840888 [kcal/mol]    -169.40350277 [kJ/mol]
      Ind20,r                     -69.78387205 [mEh]     -43.79004083 [kcal/mol]    -183.21753082 [kJ/mol]
      Ind22                       -16.08757011 [mEh]     -10.09510265 [kcal/mol]     -42.23790950 [kJ/mol]
      Exch-Ind20,r                 22.88424246 [mEh]      14.36007895 [kcal/mol]      60.08257031 [kJ/mol]
      Exch-Ind22                    5.27560085 [mEh]       3.31048952 [kcal/mol]      13.85108813 [kJ/mol]
      delta HF,r (2)               -6.81078779 [mEh]      -4.27383386 [kcal/mol]     -17.88172089 [kJ/mol]

    Dispersion                    -33.65769565 [mEh]     -21.12052289 [kcal/mol]     -88.36826776 [kJ/mol]
      Disp20                      -31.83149388 [mEh]     -19.97456397 [kcal/mol]     -83.57357566 [kJ/mol]
      Disp21                        0.68668753 [mEh]       0.43090293 [kcal/mol]       1.80289786 [kJ/mol]
      Disp22 (SDQ)                 -3.99346106 [mEh]      -2.50593465 [kcal/mol]     -10.48483057 [kJ/mol]
      Disp22 (T)                   -5.99330558 [mEh]      -3.76085603 [kcal/mol]     -15.73542164 [kJ/mol]
      Est. Disp22 (T)              -6.99235487 [mEh]      -4.38776893 [kcal/mol]     -18.35842519 [kJ/mol]
      Exch-Disp20                   8.47292663 [mEh]       5.31684173 [kcal/mol]      22.24566580 [kJ/mol]

  Total HF                       -145.53609798 [mEh]     -91.32528026 [kcal/mol]    -382.10497260 [kJ/mol]
  Total SAPT0                    -168.89466523 [mEh]    -105.98300250 [kcal/mol]    -443.43288246 [kJ/mol]
  Total SAPT2                    -152.67103297 [mEh]     -95.80251956 [kcal/mol]    -400.83774185 [kJ/mol]
  Total SAPT2+                   -162.97016138 [mEh]    -102.26532021 [kcal/mol]    -427.87809974 [kJ/mol]

  Special recipe for scaled SAPT0 (see Manual):
    Electrostatics sSAPT0        -173.72596772 [mEh]    -109.01469058 [kcal/mol]    -456.11746541 [kJ/mol]
    Exchange sSAPT0                81.90028712 [mEh]      51.39320607 [kcal/mol]     215.02917420 [kJ/mol]
    Induction sSAPT0              -54.33215800 [mEh]     -34.09394388 [kcal/mol]    -142.64906119 [kJ/mol]
    Dispersion sSAPT0             -23.58876769 [mEh]     -14.80217520 [kcal/mol]     -61.93230103 [kJ/mol]
  Total sSAPT0                   -169.74660629 [mEh]    -106.51760359 [kcal/mol]    -445.66965342 [kJ/mol]
  --------------------------------------------------------------------------------------------------------

*** Psi4 exiting successfully. Buy a developer a beer!
