                               Psi4 1.8.2 release

  ==> Input File <==

--------------------------------------------------------------------------
MEMORY 60 GB

molecule dimer {
-1 1
F      0.000000     0.000000     0.000000
--
0 1
O      2.575075     1.073331     0.885547
H      2.106665     1.918583     0.702596
H      2.020041     0.521984     0.325554
O      0.883125    -2.526453     0.876729
H      0.128634    -3.022285     1.173703
H      0.480571    -1.707949     0.521989
O     -1.584240    -0.527688    -2.161408
H     -1.072012    -0.480481    -1.337240
H     -1.395342    -1.397524    -2.511963
O     -2.043312     1.766266     0.317173
H     -2.873447     1.429607    -0.044182
H     -1.403098     0.963197     0.113049
O     -0.453685     0.678264     2.814720
H      0.049164     0.242469     2.102026
H     -1.380466     0.343591     2.776247

units ang
no_reorient
no_com
symmetry c1
}

set {
basis        aug-cc-pVTZ
scf_type     df
}

energy("sapt2+")
--------------------------------------------------------------------------

  //              Dimer HF             //
    Molecular point group: c1
  Charge       = -1
  Multiplicity = 1
  Basis Set: AUG-CC-PVTZ
    Blend: AUG-CC-PVTZ
  Basis Set: (AUG-CC-PVTZ AUX)
    Blend: AUG-CC-PVTZ-JKFIT
  @DF-RHF Final Energy:  -479.84907476484574
    Total Energy =                       -479.8490747648457386
 Dipole X            :         14.7576797          -15.7292979           -0.9716182
 Dipole Y            :         -6.0705658            4.7639089           -1.3066569
 Dipole Z            :        -49.7795143           48.5354745           -1.2440398
 Magnitude           :                                                    2.0491533
  //            Monomer A HF           //
    Molecular point group: c1
  Multiplicity = 1
  Basis Set: AUG-CC-PVTZ
    Blend: AUG-CC-PVTZ
  Basis Set: (AUG-CC-PVTZ AUX)
    Blend: AUG-CC-PVTZ-JKFIT
  @DF-RHF Final Energy:   -99.45110954133737
    Total Energy =                        -99.4511095413373738
  //            Monomer B HF           //
    Molecular point group: c1

    Geometry (in Angstrom), charge = 0, multiplicity = 1:

       Center              X                  Y                   Z               Mass
    ------------   -----------------  -----------------  -----------------  -----------------
      Gh(F)           0.000000000000     0.000000000000     0.000000000000    18.998403162730
         O            2.575075000000     1.073331000000     0.885547000000    15.994914619570
         H            2.106665000000     1.918583000000     0.702596000000     1.007825032230
         H            2.020041000000     0.521984000000     0.325554000000     1.007825032230
         O            0.883125000000    -2.526453000000     0.876729000000    15.994914619570
         H            0.128634000000    -3.022285000000     1.173703000000     1.007825032230
         H            0.480571000000    -1.707949000000     0.521989000000     1.007825032230
         O           -1.584240000000    -0.527688000000    -2.161408000000    15.994914619570
         H           -1.072012000000    -0.480481000000    -1.337240000000     1.007825032230
         H           -1.395342000000    -1.397524000000    -2.511963000000     1.007825032230
         O           -2.043312000000     1.766266000000     0.317173000000    15.994914619570
         H           -2.873447000000     1.429607000000    -0.044182000000     1.007825032230
         H           -1.403098000000     0.963197000000     0.113049000000     1.007825032230
         O           -0.453685000000     0.678264000000     2.814720000000    15.994914619570
         H            0.049164000000     0.242469000000     2.102026000000     1.007825032230
         H           -1.380466000000     0.343591000000     2.776247000000     1.007825032230

  Charge       = 0
  Multiplicity = 1
  Basis Set: AUG-CC-PVTZ
    Blend: AUG-CC-PVTZ
  Basis Set: (AUG-CC-PVTZ AUX)
    Blend: AUG-CC-PVTZ-JKFIT

    Orbital Energies [Eh]
    ---------------------

    Doubly Occupied:

       1A    -20.605412     2A    -20.601237     3A    -20.593586
       4A    -20.582679     5A    -20.572645     6A     -1.387160
       7A     -1.382835     8A     -1.361072     9A     -1.350366
      10A     -1.342526    11A     -0.753672    12A     -0.743161
      13A     -0.714377    14A     -0.702276    15A     -0.701703
      16A     -0.620414    17A     -0.615853    18A     -0.606064
      19A     -0.597449    20A     -0.576768    21A     -0.545968
      22A     -0.541114    23A     -0.527986    24A     -0.520309
      25A     -0.505434

  @DF-RHF Final Energy:  -380.26831078058729

   => Energetics <=

    Nuclear Repulsion Energy =            174.9906209076600589
    One-Electron Energy =                -872.4137265782810573
    Two-Electron Energy =                 317.1547948900337133
    Total Energy =                       -380.2683107805872851
 Dipole X            :         14.3572887          -15.7292979           -1.3720093
 Dipole Y            :         -6.0884886            4.7639089           -1.3245797
 Dipole Z            :        -49.5800748           48.5354745           -1.0446003
 Magnitude           :                                                    2.1744219

    SAPT Results
  --------------------------------------------------------------------------------------------------------
    Electrostatics               -153.43089860 [mEh]     -96.27934244 [kcal/mol]    -402.83276878 [kJ/mol]
      Elst10,r                   -152.87100340 [mEh]     -95.92800290 [kcal/mol]    -401.36276414 [kJ/mol]
      Elst12,r                     -0.55989520 [mEh]      -0.35133954 [kcal/mol]      -1.47000464 [kJ/mol]

    Exchange                       98.47758435 [mEh]      61.79561714 [kcal/mol]     258.55286210 [kJ/mol]
      Exch10                       73.90791299 [mEh]      46.37791559 [kcal/mol]     194.04519882 [kJ/mol]
      Exch10(S^2)                  74.46949315 [mEh]      46.73031246 [kcal/mol]     195.51962734 [kJ/mol]
      Exch11(S^2)                   1.54108755 [mEh]       0.96704703 [kcal/mol]       4.04612479 [kJ/mol]
      Exch12(S^2)                  23.02858382 [mEh]      14.45065451 [kcal/mol]      60.46153848 [kJ/mol]

    Induction                     -60.30197278 [mEh]     -37.84005920 [kcal/mol]    -158.32280771 [kJ/mol]
      Ind20,r                     -63.96020272 [mEh]     -40.13563315 [kcal/mol]    -167.92748910 [kJ/mol]
      Ind22                       -14.26523208 [mEh]      -8.95156828 [kcal/mol]     -37.45336167 [kJ/mol]
      Exch-Ind20,r                 20.86961597 [mEh]      13.09588173 [kcal/mol]      54.79316918 [kJ/mol]
      Exch-Ind22                    4.65461182 [mEh]       2.92081301 [kcal/mol]      12.22068164 [kJ/mol]
      delta HF,r (2)               -7.60076576 [mEh]      -4.76955252 [kcal/mol]     -19.95580776 [kJ/mol]

    Dispersion                    -29.87051452 [mEh]     -18.74403085 [kcal/mol]     -78.42502506 [kJ/mol]
      Disp20                      -28.30379621 [mEh]     -17.76090027 [kcal/mol]     -74.31160672 [kJ/mol]
      Disp21                        0.58646356 [mEh]       0.36801144 [kcal/mol]       1.53975986 [kJ/mol]
      Disp22 (SDQ)                 -3.46866016 [mEh]      -2.17661711 [kcal/mol]      -9.10696599 [kJ/mol]
      Disp22 (T)                   -5.34289510 [mEh]      -3.35271729 [kcal/mol]     -14.02776915 [kJ/mol]
      Est. Disp22 (T)              -6.21184020 [mEh]      -3.89798858 [kcal/mol]     -16.30918421 [kJ/mol]
      Exch-Disp20                   7.52731850 [mEh]       4.72346367 [kcal/mol]      19.76297199 [kJ/mol]

  Total HF                       -129.65444292 [mEh]     -81.35939125 [kcal/mol]    -340.40769299 [kJ/mol]
  Total SAPT0                    -150.43092064 [mEh]     -94.39682785 [kcal/mol]    -394.95632772 [kJ/mol]
  Total SAPT2                    -136.03176474 [mEh]     -85.36122111 [kcal/mol]    -357.15134912 [kJ/mol]
  Total SAPT2+                   -145.12580154 [mEh]     -91.06781536 [kcal/mol]    -381.02773945 [kJ/mol]

  Special recipe for scaled SAPT0 (see Manual):
    Electrostatics sSAPT0        -152.87100340 [mEh]     -95.92800290 [kcal/mol]    -401.36276414 [kJ/mol]
    Exchange sSAPT0                73.90791299 [mEh]      46.37791559 [kcal/mol]     194.04519882 [kJ/mol]
    Induction sSAPT0              -51.15993916 [mEh]     -32.10334650 [kcal/mol]    -134.32040175 [kJ/mol]
    Dispersion sSAPT0             -20.94548902 [mEh]     -13.14349279 [kcal/mol]     -54.99237384 [kJ/mol]
  Total sSAPT0                   -151.06851858 [mEh]     -94.79692660 [kcal/mol]    -396.63034090 [kJ/mol]
  --------------------------------------------------------------------------------------------------------

*** Psi4 exiting successfully. Buy a developer a beer!
