                               Psi4 1.8.2 release

  ==> Input File <==

--------------------------------------------------------------------------
MEMORY 60 GB

molecule dimer {
-1 1
F      0.000000     0.000000     0.000000
--
0 1
O      1.569360     1.518618    -1.837610
H      1.155301     1.598253    -2.718294
H      0.927061     0.996283    -1.347020
O      0.530386     0.269958     2.875111
H      1.172033     0.849356     3.370842
H      0.631636     0.167803     1.901881
O     -0.928796    -2.527019    -0.372089
H     -0.809957    -1.635358     0.032375
H     -1.197638    -3.136721     0.344653
O     -1.941797     1.884913     0.438019
H     -1.127941     2.210082     0.062217
H     -1.791200     0.968612     0.500762
O     -2.979564    -0.679629     0.263051
H     -3.238399    -1.549104     0.622195
H     -3.682243    -0.073049     0.667091
O      1.997910    -1.718340     0.059017
H      1.266622    -1.101851    -0.130084
H      2.707820    -1.267608     0.569883

units ang
no_reorient
no_com
symmetry c1
}

set {
basis        aug-cc-pVTZ
scf_type     df
}

energy("sapt2+")
--------------------------------------------------------------------------

  //              Dimer HF             //
    Molecular point group: c1
  Charge       = -1
  Multiplicity = 1
  Basis Set: AUG-CC-PVTZ
    Blend: AUG-CC-PVTZ
  Basis Set: (AUG-CC-PVTZ AUX)
    Blend: AUG-CC-PVTZ-JKFIT
  @DF-RHF Final Energy:  -555.88852790974784
    Total Energy =                       -555.8885279097478360
 Dipole X            :         33.5138066          -34.0281339           -0.5143273
 Dipole Y            :         23.1169288          -22.6489232            0.4680056
 Dipole Z            :        -28.4296360           28.8759468            0.4463108
 Magnitude           :                                                    0.8262900
  //            Monomer A HF           //
    Molecular point group: c1
  Multiplicity = 1
  Basis Set: AUG-CC-PVTZ
    Blend: AUG-CC-PVTZ
  Basis Set: (AUG-CC-PVTZ AUX)
    Blend: AUG-CC-PVTZ-JKFIT
  @DF-RHF Final Energy:   -99.45113535760963
    Total Energy =                        -99.4511353576096440
  //            Monomer B HF           //
    Molecular point group: c1

    Geometry (in Angstrom), charge = 0, multiplicity = 1:

       Center              X                  Y                   Z               Mass
    ------------   -----------------  -----------------  -----------------  -----------------
      Gh(F)           0.000000000000     0.000000000000     0.000000000000    18.998403162730
         O            1.569360000000     1.518618000000    -1.837610000000    15.994914619570
         H            1.155301000000     1.598253000000    -2.718294000000     1.007825032230
         H            0.927061000000     0.996283000000    -1.347020000000     1.007825032230
         O            0.530386000000     0.269958000000     2.875111000000    15.994914619570
         H            1.172033000000     0.849356000000     3.370842000000     1.007825032230
         H            0.631636000000     0.167803000000     1.901881000000     1.007825032230
         O           -0.928796000000    -2.527019000000    -0.372089000000    15.994914619570
         H           -0.809957000000    -1.635358000000     0.032375000000     1.007825032230
         H           -1.197638000000    -3.136721000000     0.344653000000     1.007825032230
         O           -1.941797000000     1.884913000000     0.438019000000    15.994914619570
         H           -1.127941000000     2.210082000000     0.062217000000     1.007825032230
         H           -1.791200000000     0.968612000000     0.500762000000     1.007825032230
         O           -2.979564000000    -0.679629000000     0.263051000000    15.994914619570
         H           -3.238399000000    -1.549104000000     0.622195000000     1.007825032230
         H           -3.682243000000    -0.073049000000     0.667091000000     1.007825032230
         O            1.997910000000    -1.718340000000     0.059017000000    15.994914619570
         H            1.266622000000    -1.101851000000    -0.130084000000     1.007825032230
         H            2.707820000000    -1.267608000000     0.569883000000     1.007825032230

  Charge       = 0
  Multiplicity = 1
  Basis Set: AUG-CC-PVTZ
    Blend: AUG-CC-PVTZ
  Basis Set: (AUG-CC-PVTZ AUX)
    Blend: AUG-CC-PVTZ-JKFIT

    Orbital Energies [Eh]
    ---------------------

    Doubly Occupied:

       1A    -20.594010     2A    -20.587670     3A    -20.579480
       4A    -20.575613     5A    -20.569744     6A    -20.561605
       7A     -1.367681     8A     -1.366389     9A     -1.356199
      10A     -1.346852    11A     -1.342142    12A     -1.339395
      13A     -0.739838    14A     -0.738178    15A     -0.730693
      16A     -0.724755    17A     -0.710469    18A     -0.700804
      19A     -0.612736    20A     -0.603355    21A     -0.588077
      22A     -0.577915    23A     -0.574340    24A     -0.564223
      25A     -0.530234    26A     -0.527801    27A     -0.519751
      28A     -0.514865    29A     -0.508556    30A     -0.503118

  @DF-RHF Final Energy:  -456.32977826885667

   => Energetics <=

    Nuclear Repulsion Energy =            251.9780710529402370
    One-Electron Energy =               -1131.5027093326095837
    Two-Electron Energy =                 423.1948600108127039
    Total Energy =                       -456.3297782688566713
 Dipole X            :         33.6869511          -34.0281339           -0.3411828
 Dipole Y            :         22.8593501          -22.6489232            0.2104269
 Dipole Z            :        -28.2624133           28.8759468            0.6135335
 Magnitude           :                                                    0.7328769

    SAPT Results
  --------------------------------------------------------------------------------------------------------
    Electrostatics               -138.34251000 [mEh]     -86.81123565 [kcal/mol]    -363.21820996 [kJ/mol]
      Elst10,r                   -134.80832214 [mEh]     -84.59349929 [kcal/mol]    -353.93920103 [kJ/mol]
      Elst12,r                     -3.53418785 [mEh]      -2.21773636 [kcal/mol]      -9.27900893 [kJ/mol]

    Exchange                      103.66925211 [mEh]      65.05343784 [kcal/mol]     272.18358391 [kJ/mol]
      Exch10                       77.41775667 [mEh]      48.58037575 [kcal/mol]     203.26029214 [kJ/mol]
      Exch10(S^2)                  77.95548307 [mEh]      48.91780416 [kcal/mol]     204.67209260 [kJ/mol]
      Exch11(S^2)                   1.04775111 [mEh]       0.65747375 [kcal/mol]       2.75087017 [kJ/mol]
      Exch12(S^2)                  25.20374432 [mEh]      15.81558834 [kcal/mol]      66.17242160 [kJ/mol]

    Induction                     -60.84803804 [mEh]     -38.18272033 [kcal/mol]    -159.75650188 [kJ/mol]
      Ind20,r                     -67.08516961 [mEh]     -42.09657948 [kcal/mol]    -176.13208855 [kJ/mol]
      Ind22                       -16.42734746 [mEh]     -10.30831616 [kcal/mol]     -43.12999481 [kJ/mol]
      Exch-Ind20,r                 23.69810869 [mEh]      14.87078772 [kcal/mol]      62.21937580 [kJ/mol]
      Exch-Ind22                    5.80302722 [mEh]       3.64145456 [kcal/mol]      15.23584588 [kJ/mol]
      delta HF,r (2)               -6.83665689 [mEh]      -4.29006697 [kcal/mol]     -17.94964020 [kJ/mol]

    Dispersion                    -31.97474781 [mEh]     -20.06445717 [kcal/mol]     -83.94968882 [kJ/mol]
      Disp20                      -30.32078050 [mEh]     -19.02657701 [kcal/mol]     -79.60719823 [kJ/mol]
      Disp21                        0.73697667 [mEh]       0.46245984 [kcal/mol]       1.93493199 [kJ/mol]
      Disp22 (SDQ)                 -3.81169936 [mEh]      -2.39187746 [kcal/mol]     -10.00761528 [kJ/mol]
      Disp22 (T)                   -5.62821012 [mEh]      -3.53175517 [kcal/mol]     -14.77686362 [kJ/mol]
      Est. Disp22 (T)              -6.59826497 [mEh]      -4.14047378 [kcal/mol]     -17.32374230 [kJ/mol]
      Exch-Disp20                   8.01902034 [mEh]       5.03201124 [kcal/mol]      21.05393501 [kJ/mol]

  Total HF                       -107.61428328 [mEh]     -67.52898227 [kcal/mol]    -282.54126183 [kJ/mol]
  Total SAPT0                    -129.91604344 [mEh]     -81.52354805 [kcal/mol]    -341.09452505 [kJ/mol]
  Total SAPT2                    -117.82305609 [mEh]     -73.93508393 [kcal/mol]    -309.34439115 [kJ/mol]
  Total SAPT2+                   -127.49604375 [mEh]     -80.00497532 [kcal/mol]    -334.74081674 [kJ/mol]

  Special recipe for scaled SAPT0 (see Manual):
    Electrostatics sSAPT0        -134.80832214 [mEh]     -84.59349929 [kcal/mol]    -353.93920103 [kJ/mol]
    Exchange sSAPT0                77.41775667 [mEh]      48.58037575 [kcal/mol]     203.26029214 [kJ/mol]
    Induction sSAPT0              -50.71074194 [mEh]     -31.82147099 [kcal/mol]    -133.14103462 [kJ/mol]
    Dispersion sSAPT0             -22.46656050 [mEh]     -14.09797956 [kcal/mol]     -58.98594646 [kJ/mol]
  Total sSAPT0                   -130.56786791 [mEh]     -81.93257408 [kcal/mol]    -342.80588997 [kJ/mol]
  --------------------------------------------------------------------------------------------------------

*** Psi4 exiting successfully. Buy a developer a beer!
