                               Psi4 1.8.2 release

  ==> Input File <==

--------------------------------------------------------------------------
MEMORY 60 GB

molecule dimer {
-1 1
F      0.000000     0.000000     0.000000
--
0 1
O     -1.091558    -1.809519     1.863944
H     -1.964939    -2.052092     1.500602
H     -0.591849    -1.199205     1.314271
O      0.258123    -2.349417    -1.373394
H      0.547624    -1.593259    -0.773108
H     -0.646190    -2.478934    -1.244225
O     -0.214660     2.146157     2.063174
H     -0.165088     1.390555     1.502524
H     -0.077747     1.856844     2.975158
O     -2.197647     0.913173    -1.713640
H     -2.446327     0.152611    -2.322329
H     -2.435783     1.766268    -2.074757
O      2.616092    -0.020543     0.476284
H      1.590067     0.041365     0.327444
H      2.682891    -0.935497     0.868501
O     -2.727641     0.971623     1.032331
H     -2.177883     0.803632     0.264595
H     -2.164027     1.556644     1.587096
O      0.756321     1.995676    -1.708341
H      0.223582     2.645031    -1.239711
H      0.300779     1.186526    -1.574937

units ang
no_reorient
no_com
symmetry c1
}

set {
basis        aug-cc-pVTZ
scf_type     df
}

energy("sapt2+")
--------------------------------------------------------------------------

  //              Dimer HF             //
    Molecular point group: c1
  Charge       = -1
  Multiplicity = 1
  Basis Set: AUG-CC-PVTZ
    Blend: AUG-CC-PVTZ
  Basis Set: (AUG-CC-PVTZ AUX)
    Blend: AUG-CC-PVTZ-JKFIT
  @DF-RHF Final Energy:  -631.96316321876077
    Total Energy =                       -631.9631632187607693
 Dipole X            :         51.6647420          -53.1630037           -1.4982617
 Dipole Y            :        -34.0193756           33.8595250           -0.1598506
 Dipole Z            :        -12.2042695           11.7805300           -0.4237396
 Magnitude           :                                                    1.5652142
  //            Monomer A HF           //
    Molecular point group: c1
  Multiplicity = 1
  Basis Set: AUG-CC-PVTZ
    Blend: AUG-CC-PVTZ
  Basis Set: (AUG-CC-PVTZ AUX)
    Blend: AUG-CC-PVTZ-JKFIT
  @DF-RHF Final Energy:   -99.45117033471178
    Total Energy =                        -99.4511703347117617
  //            Monomer B HF           //
    Molecular point group: c1

    Geometry (in Angstrom), charge = 0, multiplicity = 1:

       Center              X                  Y                   Z               Mass
    ------------   -----------------  -----------------  -----------------  -----------------
      Gh(F)           0.000000000000     0.000000000000     0.000000000000    18.998403162730
         O           -1.091558000000    -1.809519000000     1.863944000000    15.994914619570
         H           -1.964939000000    -2.052092000000     1.500602000000     1.007825032230
         H           -0.591849000000    -1.199205000000     1.314271000000     1.007825032230
         O            0.258123000000    -2.349417000000    -1.373394000000    15.994914619570
         H            0.547624000000    -1.593259000000    -0.773108000000     1.007825032230
         H           -0.646190000000    -2.478934000000    -1.244225000000     1.007825032230
         O           -0.214660000000     2.146157000000     2.063174000000    15.994914619570
         H           -0.165088000000     1.390555000000     1.502524000000     1.007825032230
         H           -0.077747000000     1.856844000000     2.975158000000     1.007825032230
         O           -2.197647000000     0.913173000000    -1.713640000000    15.994914619570
         H           -2.446327000000     0.152611000000    -2.322329000000     1.007825032230
         H           -2.435783000000     1.766268000000    -2.074757000000     1.007825032230
         O            2.616092000000    -0.020543000000     0.476284000000    15.994914619570
         H            1.590067000000     0.041365000000     0.327444000000     1.007825032230
         H            2.682891000000    -0.935497000000     0.868501000000     1.007825032230
         O           -2.727641000000     0.971623000000     1.032331000000    15.994914619570
         H           -2.177883000000     0.803632000000     0.264595000000     1.007825032230
         H           -2.164027000000     1.556644000000     1.587096000000     1.007825032230
         O            0.756321000000     1.995676000000    -1.708341000000    15.994914619570
         H            0.223582000000     2.645031000000    -1.239711000000     1.007825032230
         H            0.300779000000     1.186526000000    -1.574937000000     1.007825032230

  Charge       = 0
  Multiplicity = 1
  Basis Set: AUG-CC-PVTZ
    Blend: AUG-CC-PVTZ
  Basis Set: (AUG-CC-PVTZ AUX)
    Blend: AUG-CC-PVTZ-JKFIT

    Orbital Energies [Eh]
    ---------------------

    Doubly Occupied:

       1A    -20.609279     2A    -20.599359     3A    -20.595201
       4A    -20.591591     5A    -20.584973     6A    -20.569731
       7A    -20.552238     8A     -1.386509     9A     -1.383796
      10A     -1.373761    11A     -1.362523    12A     -1.361966
      13A     -1.346252    14A     -1.335214    15A     -0.764175
      16A     -0.760837    17A     -0.751358    18A     -0.744140
      19A     -0.726509    20A     -0.706916    21A     -0.696457
      22A     -0.619488    23A     -0.610461    24A     -0.604952
      25A     -0.595466    26A     -0.591869    27A     -0.583400
      28A     -0.577552    29A     -0.551495    30A     -0.535391
      31A     -0.533315    32A     -0.525958    33A     -0.524918
      34A     -0.513999    35A     -0.493445

  @DF-RHF Final Energy:  -532.38698004512389

   => Energetics <=

    Nuclear Repulsion Energy =            343.2384888193095662
    One-Electron Energy =               -1417.9219436978316935
    Two-Electron Energy =                 542.2964748333981788
    Total Energy =                       -532.3869800451238916
 Dipole X            :         51.8204889          -53.1630037           -1.3425148
 Dipole Y            :        -34.1334020           33.8595250           -0.2738770
 Dipole Z            :        -12.0105692           11.7805300           -0.2300392
 Magnitude           :                                                    1.3893425

    SAPT Results
  --------------------------------------------------------------------------------------------------------
    Electrostatics               -161.43821804 [mEh]    -101.30401125 [kcal/mol]    -423.85598307 [kJ/mol]
      Elst10,r                   -158.30841530 [mEh]     -99.34003038 [kcal/mol]    -415.63868711 [kJ/mol]
      Elst12,r                     -3.12980274 [mEh]      -1.96398087 [kcal/mol]      -8.21729596 [kJ/mol]

    Exchange                      123.05273561 [mEh]      77.21675737 [kcal/mol]     323.07491283 [kJ/mol]
      Exch10                       91.34833856 [mEh]      57.32194786 [kcal/mol]     239.83502984 [kJ/mol]
      Exch10(S^2)                  92.45992822 [mEh]      58.01948090 [kcal/mol]     242.75350809 [kJ/mol]
      Exch11(S^2)                   1.58804235 [mEh]       0.99651162 [kcal/mol]       4.16940462 [kJ/mol]
      Exch12(S^2)                  30.11635470 [mEh]      18.89829789 [kcal/mol]      79.07047837 [kJ/mol]

    Induction                     -70.46982632 [mEh]     -44.22048363 [kcal/mol]    -185.01850351 [kJ/mol]
      Ind20,r                     -77.45716360 [mEh]     -48.60510397 [kcal/mol]    -203.36375502 [kJ/mol]
      Ind22                       -19.19985941 [mEh]     -12.04809368 [kcal/mol]     -50.40922394 [kJ/mol]
      Exch-Ind20,r                 27.36353804 [mEh]      17.17087936 [kcal/mol]      71.84295923 [kJ/mol]
      Exch-Ind22                    6.78279528 [mEh]       4.25626830 [kcal/mol]      17.80822655 [kJ/mol]
      delta HF,r (2)               -7.95913662 [mEh]      -4.99443363 [kcal/mol]     -20.89671032 [kJ/mol]

    Dispersion                    -37.62975143 [mEh]     -23.61302552 [kcal/mol]     -98.79689876 [kJ/mol]
      Disp20                      -35.77705784 [mEh]     -22.45044274 [kcal/mol]     -93.93265241 [kJ/mol]
      Disp21                        1.10109562 [mEh]       0.69094794 [kcal/mol]       2.89092616 [kJ/mol]
      Disp22 (SDQ)                 -4.67408340 [mEh]      -2.93303162 [kcal/mol]     -12.27180429 [kJ/mol]
      Disp22 (T)                   -6.78835712 [mEh]      -4.25975841 [kcal/mol]     -17.82282917 [kJ/mol]
      Est. Disp22 (T)              -7.90096598 [mEh]      -4.95793101 [kcal/mol]     -20.74398333 [kJ/mol]
      Exch-Disp20                   9.62126017 [mEh]       6.03743191 [kcal/mol]      25.26061511 [kJ/mol]

  Total HF                       -125.01283893 [mEh]     -78.44674077 [kcal/mol]    -328.22116338 [kJ/mol]
  Total SAPT0                    -151.16863659 [mEh]     -94.85975160 [kcal/mol]    -396.89320068 [kJ/mol]
  Total SAPT2                    -135.01110641 [mEh]     -84.72074834 [kcal/mol]    -354.47161105 [kJ/mol]
  Total SAPT2+                   -146.48506017 [mEh]     -91.92076303 [kcal/mol]    -384.59647250 [kJ/mol]

  Special recipe for scaled SAPT0 (see Manual):
    Electrostatics sSAPT0        -158.30841530 [mEh]     -99.34003038 [kcal/mol]    -415.63868711 [kJ/mol]
    Exchange sSAPT0                91.34833856 [mEh]      57.32194786 [kcal/mol]     239.83502984 [kJ/mol]
    Induction sSAPT0              -59.02787020 [mEh]     -37.04054777 [kcal/mol]    -154.97765187 [kJ/mol]
    Dispersion sSAPT0             -26.49865420 [mEh]     -16.62815656 [kcal/mol]     -69.57220703 [kJ/mol]
  Total sSAPT0                   -152.48660115 [mEh]     -95.68678685 [kcal/mol]    -400.35351617 [kJ/mol]
  --------------------------------------------------------------------------------------------------------

*** Psi4 exiting successfully. Buy a developer a beer!
