                               Psi4 1.8.2 release

  ==> Input File <==

--------------------------------------------------------------------------
MEMORY 60 GB

molecule dimer {
-1 1
F      0.000000     0.000000     0.000000
--
0 1
O      1.051129     1.096357     2.694346
H      0.619287     1.901551     2.882839
H      0.909597     0.954000     1.767452
O      1.736119     1.777929    -1.101982
H      1.243908     1.941691    -1.896130
H      1.299520     1.022179    -0.669957
O     -0.450907    -2.751484    -0.302061
H     -0.441612    -3.080057     0.625078
H     -0.079139    -1.885185    -0.236471
O     -1.073336    -0.475456    -2.416481
H     -1.819131     0.195421    -2.500612
H     -0.639424    -0.295340    -1.571394
O     -1.530930     2.318994    -0.767106
H     -0.855521     1.628887    -0.576701
H     -1.755147     2.231506    -1.684517
O     -1.347398    -0.607075     2.261043
H     -0.798765    -0.276198     1.560294
H     -0.935135    -1.323906     2.841048

units ang
no_reorient
no_com
symmetry c1
}

set {
basis        aug-cc-pVTZ
scf_type     df
}

energy("sapt2+")
--------------------------------------------------------------------------

  //              Dimer HF             //
    Molecular point group: c1
  Charge       = -1
  Multiplicity = 1
  Basis Set: AUG-CC-PVTZ
    Blend: AUG-CC-PVTZ
  Basis Set: (AUG-CC-PVTZ AUX)
    Blend: AUG-CC-PVTZ-JKFIT
  @DF-RHF Final Energy:  -555.91545588795100
    Total Energy =                       -555.9154558879509977
 Dipole X            :         30.7482155          -30.5647063            0.1835092
 Dipole Y            :        -26.1749045           26.2457807            0.0708761
 Dipole Z            :         -6.5608305            6.5819180            0.0210875
 Magnitude           :                                                    0.1978478
  //            Monomer A HF           //
    Molecular point group: c1
  Multiplicity = 1
  Basis Set: AUG-CC-PVTZ
    Blend: AUG-CC-PVTZ
  Basis Set: (AUG-CC-PVTZ AUX)
    Blend: AUG-CC-PVTZ-JKFIT
  @DF-RHF Final Energy:   -99.45115808714327
    Total Energy =                        -99.4511580871432841
  //            Monomer B HF           //
    Molecular point group: c1

    Geometry (in Angstrom), charge = 0, multiplicity = 1:

       Center              X                  Y                   Z               Mass
    ------------   -----------------  -----------------  -----------------  -----------------
      Gh(F)           0.000000000000     0.000000000000     0.000000000000    18.998403162730
         O            1.051129000000     1.096357000000     2.694346000000    15.994914619570
         H            0.619287000000     1.901551000000     2.882839000000     1.007825032230
         H            0.909597000000     0.954000000000     1.767452000000     1.007825032230
         O            1.736119000000     1.777929000000    -1.101982000000    15.994914619570
         H            1.243908000000     1.941691000000    -1.896130000000     1.007825032230
         H            1.299520000000     1.022179000000    -0.669957000000     1.007825032230
         O           -0.450907000000    -2.751484000000    -0.302061000000    15.994914619570
         H           -0.441612000000    -3.080057000000     0.625078000000     1.007825032230
         H           -0.079139000000    -1.885185000000    -0.236471000000     1.007825032230
         O           -1.073336000000    -0.475456000000    -2.416481000000    15.994914619570
         H           -1.819131000000     0.195421000000    -2.500612000000     1.007825032230
         H           -0.639424000000    -0.295340000000    -1.571394000000     1.007825032230
         O           -1.530930000000     2.318994000000    -0.767106000000    15.994914619570
         H           -0.855521000000     1.628887000000    -0.576701000000     1.007825032230
         H           -1.755147000000     2.231506000000    -1.684517000000     1.007825032230
         O           -1.347398000000    -0.607075000000     2.261043000000    15.994914619570
         H           -0.798765000000    -0.276198000000     1.560294000000     1.007825032230
         H           -0.935135000000    -1.323906000000     2.841048000000     1.007825032230

  Charge       = 0
  Multiplicity = 1
  Basis Set: AUG-CC-PVTZ
    Blend: AUG-CC-PVTZ
  Basis Set: (AUG-CC-PVTZ AUX)
    Blend: AUG-CC-PVTZ-JKFIT

    Orbital Energies [Eh]
    ---------------------

    Doubly Occupied:

       1A    -20.603713     2A    -20.603450     3A    -20.602441
       4A    -20.583427     5A    -20.581530     6A    -20.580468
       7A     -1.388029     8A     -1.383473     9A     -1.380256
      10A     -1.371057    11A     -1.365289    12A     -1.352779
      13A     -0.760455    14A     -0.752917    15A     -0.749653
      16A     -0.742425    17A     -0.738860    18A     -0.722500
      19A     -0.630218    20A     -0.612155    21A     -0.604331
      22A     -0.600593    23A     -0.594974    24A     -0.575579
      25A     -0.549969    26A     -0.541730    27A     -0.538681
      28A     -0.536511    29A     -0.522935    30A     -0.508202

  @DF-RHF Final Energy:  -456.31594992433656

   => Energetics <=

    Nuclear Repulsion Energy =            254.8867326947058700
    One-Electron Energy =               -1136.2481621842709956
    Two-Electron Energy =                 425.0454795652285611
    Total Energy =                       -456.3159499243365644
 Dipole X            :         30.4714425          -30.5647063           -0.0932638
 Dipole Y            :        -25.9952386           26.2457807            0.2505420
 Dipole Z            :         -6.7109907            6.5819180           -0.1290727
 Magnitude           :                                                    0.2968656

    SAPT Results
  --------------------------------------------------------------------------------------------------------
    Electrostatics               -184.71449915 [mEh]    -115.91009816 [kcal/mol]    -484.96785072 [kJ/mol]
      Elst10,r                   -183.46205160 [mEh]    -115.12417546 [kcal/mol]    -481.67955012 [kJ/mol]
      Elst12,r                     -1.25244755 [mEh]      -0.78592270 [kcal/mol]      -3.28830059 [kJ/mol]

    Exchange                      121.45443828 [mEh]      76.21381065 [kcal/mol]     318.87858377 [kJ/mol]
      Exch10                       91.00765351 [mEh]      57.10816476 [kcal/mol]     238.94056137 [kJ/mol]
      Exch10(S^2)                  92.03310752 [mEh]      57.75164687 [kcal/mol]     241.63289051 [kJ/mol]
      Exch11(S^2)                   1.81580038 [mEh]       1.13943194 [kcal/mol]       4.76738324 [kJ/mol]
      Exch12(S^2)                  28.63098439 [mEh]      17.96621395 [kcal/mol]      75.17063916 [kJ/mol]

    Induction                     -67.56032433 [mEh]     -42.39474357 [kcal/mol]    -177.37960708 [kJ/mol]
      Ind20,r                     -75.01787975 [mEh]     -47.07443025 [kcal/mol]    -196.95941615 [kJ/mol]
      Ind22                       -17.80796833 [mEh]     -11.17466884 [kcal/mol]     -46.75481441 [kJ/mol]
      Exch-Ind20,r                 25.87010331 [mEh]      16.23373491 [kcal/mol]      67.92194688 [kJ/mol]
      Exch-Ind22                    6.14112238 [mEh]       3.85361247 [kcal/mol]      16.12351459 [kJ/mol]
      delta HF,r (2)               -6.74570194 [mEh]      -4.23299187 [kcal/mol]     -17.71083799 [kJ/mol]

    Dispersion                    -36.17190448 [mEh]     -22.69821274 [kcal/mol]     -94.96932212 [kJ/mol]
      Disp20                      -34.64187395 [mEh]     -21.73810409 [kcal/mol]     -90.95222752 [kJ/mol]
      Disp21                        0.90189898 [mEh]       0.56595015 [kcal/mol]       2.36793545 [kJ/mol]
      Disp22 (SDQ)                 -4.27795025 [mEh]      -2.68445431 [kcal/mol]     -11.23175683 [kJ/mol]
      Disp22 (T)                   -6.49146262 [mEh]      -4.07345429 [kcal/mol]     -17.04333276 [kJ/mol]
      Est. Disp22 (T)              -7.51911498 [mEh]      -4.71831589 [kcal/mol]     -19.74143367 [kJ/mol]
      Exch-Disp20                   9.36513572 [mEh]       5.87671139 [kcal/mol]      24.58816044 [kJ/mol]

  Total HF                       -148.34787647 [mEh]     -93.08969790 [kcal/mol]    -389.48729602 [kJ/mol]
  Total SAPT0                    -173.62461470 [mEh]    -108.95109060 [kcal/mol]    -455.85136309 [kJ/mol]
  Total SAPT2                    -156.09712343 [mEh]     -97.95242378 [kcal/mol]    -409.83294110 [kJ/mol]
  Total SAPT2+                   -166.99228968 [mEh]    -104.78924382 [kcal/mol]    -438.43819615 [kJ/mol]

  Special recipe for scaled SAPT0 (see Manual):
    Electrostatics sSAPT0        -183.46205160 [mEh]    -115.12417546 [kcal/mol]    -481.67955012 [kJ/mol]
    Exchange sSAPT0                91.00765351 [mEh]      57.10816476 [kcal/mol]     238.94056137 [kJ/mol]
    Induction sSAPT0              -56.74863079 [mEh]     -35.61030344 [kcal/mol]    -148.99350961 [kJ/mol]
    Dispersion sSAPT0             -25.58630863 [mEh]     -16.05565107 [kcal/mol]     -67.17684406 [kJ/mol]
  Total sSAPT0                   -174.78933752 [mEh]    -109.68196521 [kcal/mol]    -458.90934243 [kJ/mol]
  --------------------------------------------------------------------------------------------------------

*** Psi4 exiting successfully. Buy a developer a beer!
