                               Psi4 1.8.2 release

  ==> Input File <==

--------------------------------------------------------------------------
MEMORY 60 GB

molecule dimer {
-1 1
F      0.000000     0.000000     0.000000
--
0 1
O     -0.504269     2.615845     0.858712
H     -0.368841     1.747318     0.502742
H     -0.320597     2.565113     1.799174
O     -1.503618    -1.315665    -1.986342
H     -2.280667    -0.801501    -2.366013
H     -1.171011    -0.825309    -1.270502
O      2.723573    -0.791721     0.593434
H      1.984339    -0.306086     0.872898
H      2.496015    -1.256115    -0.252519
O     -0.166216    -0.566886     2.722248
H     -0.104215    -0.470380     1.811756
H      0.267185    -1.405528     2.999724
O      1.430300     1.446224    -1.905269
H      2.087411     1.977584    -1.375924
H      0.975354     0.908102    -1.325386

units ang
no_reorient
no_com
symmetry c1
}

set {
basis        aug-cc-pVTZ
scf_type     df
}

energy("sapt2+")
--------------------------------------------------------------------------

  //              Dimer HF             //
    Molecular point group: c1
  Charge       = -1
  Multiplicity = 1
  Basis Set: AUG-CC-PVTZ
    Blend: AUG-CC-PVTZ
  Basis Set: (AUG-CC-PVTZ AUX)
    Blend: AUG-CC-PVTZ-JKFIT
  @DF-RHF Final Energy:  -479.85577453419177
    Total Energy =                       -479.8557745341917666
 Dipole X            :        -37.0868353           36.6666073           -0.4202280
 Dipole Y            :        -25.6730833           25.0116100           -0.6614733
 Dipole Z            :         -6.4246363            6.9130226            0.4883863
 Magnitude           :                                                    0.9233957
  //            Monomer A HF           //
    Molecular point group: c1
  Multiplicity = 1
  Basis Set: AUG-CC-PVTZ
    Blend: AUG-CC-PVTZ
  Basis Set: (AUG-CC-PVTZ AUX)
    Blend: AUG-CC-PVTZ-JKFIT
  @DF-RHF Final Energy:   -99.45109710690701
    Total Energy =                        -99.4510971069070138
  //            Monomer B HF           //
    Molecular point group: c1

    Geometry (in Angstrom), charge = 0, multiplicity = 1:

       Center              X                  Y                   Z               Mass
    ------------   -----------------  -----------------  -----------------  -----------------
      Gh(F)           0.000000000000     0.000000000000     0.000000000000    18.998403162730
         O           -0.504269000000     2.615845000000     0.858712000000    15.994914619570
         H           -0.368841000000     1.747318000000     0.502742000000     1.007825032230
         H           -0.320597000000     2.565113000000     1.799174000000     1.007825032230
         O           -1.503618000000    -1.315665000000    -1.986342000000    15.994914619570
         H           -2.280667000000    -0.801501000000    -2.366013000000     1.007825032230
         H           -1.171011000000    -0.825309000000    -1.270502000000     1.007825032230
         O            2.723573000000    -0.791721000000     0.593434000000    15.994914619570
         H            1.984339000000    -0.306086000000     0.872898000000     1.007825032230
         H            2.496015000000    -1.256115000000    -0.252519000000     1.007825032230
         O           -0.166216000000    -0.566886000000     2.722248000000    15.994914619570
         H           -0.104215000000    -0.470380000000     1.811756000000     1.007825032230
         H            0.267185000000    -1.405528000000     2.999724000000     1.007825032230
         O            1.430300000000     1.446224000000    -1.905269000000    15.994914619570
         H            2.087411000000     1.977584000000    -1.375924000000     1.007825032230
         H            0.975354000000     0.908102000000    -1.325386000000     1.007825032230

  Charge       = 0
  Multiplicity = 1
  Basis Set: AUG-CC-PVTZ
    Blend: AUG-CC-PVTZ
  Basis Set: (AUG-CC-PVTZ AUX)
    Blend: AUG-CC-PVTZ-JKFIT

    Orbital Energies [Eh]
    ---------------------

    Doubly Occupied:

       1A    -20.593903     2A    -20.589749     3A    -20.585543
       4A    -20.584405     5A    -20.577968     6A     -1.385578
       7A     -1.375285     8A     -1.372558     9A     -1.367638
      10A     -1.365993    11A     -0.763975    12A     -0.748346
      13A     -0.745149    14A     -0.738861    15A     -0.735507
      16A     -0.607392    17A     -0.600987    18A     -0.597385
      19A     -0.594721    20A     -0.590085    21A     -0.540748
      22A     -0.533447    23A     -0.529214    24A     -0.526572
      25A     -0.519906

  @DF-RHF Final Energy:  -380.28141852293140

   => Energetics <=

    Nuclear Repulsion Energy =            174.1469807090404629
    One-Electron Energy =                -870.5149649261470586
    Two-Electron Energy =                 316.0865656941751922
    Total Energy =                       -380.2814185229314035
 Dipole X            :        -36.9011080           36.6666073           -0.2345006
 Dipole Y            :        -25.4303259           25.0116100           -0.4187159
 Dipole Z            :         -6.3403499            6.9130226            0.5726726
 Magnitude           :                                                    0.7471730

    SAPT Results
  --------------------------------------------------------------------------------------------------------
    Electrostatics               -143.90044728 [mEh]     -90.29889395 [kcal/mol]    -377.81057228 [kJ/mol]
      Elst10,r                   -143.25231478 [mEh]     -89.89218467 [kcal/mol]    -376.10890065 [kJ/mol]
      Elst12,r                     -0.64813250 [mEh]      -0.40670928 [kcal/mol]      -1.70167163 [kJ/mol]

    Exchange                       83.68084997 [mEh]      52.51052613 [kcal/mol]     219.70404133 [kJ/mol]
      Exch10                       61.83917955 [mEh]      38.80467102 [kcal/mol]     162.35874354 [kJ/mol]
      Exch10(S^2)                  62.34705227 [mEh]      39.12336596 [kcal/mol]     163.69216319 [kJ/mol]
      Exch11(S^2)                   0.78985758 [mEh]       0.49564312 [kcal/mol]       2.07377080 [kJ/mol]
      Exch12(S^2)                  21.05181284 [mEh]      13.21021200 [kcal/mol]      55.27152699 [kJ/mol]

    Induction                     -50.83089973 [mEh]     -31.89687114 [kcal/mol]    -133.45650886 [kJ/mol]
      Ind20,r                     -55.44656726 [mEh]     -34.79324625 [kcal/mol]    -145.57494229 [kJ/mol]
      Ind22                       -13.61032962 [mEh]      -8.54061078 [kcal/mol]     -35.73391549 [kJ/mol]
      Exch-Ind20,r                 18.84240977 [mEh]      11.82379064 [kcal/mol]      49.47074003 [kJ/mol]
      Exch-Ind22                    4.62519900 [mEh]       2.90235619 [kcal/mol]      12.14345831 [kJ/mol]
      delta HF,r (2)               -5.24161162 [mEh]      -3.28916095 [kcal/mol]     -13.76184942 [kJ/mol]

    Dispersion                    -26.90517747 [mEh]     -16.88325376 [kcal/mol]     -70.63953373 [kJ/mol]
      Disp20                      -24.92036489 [mEh]     -15.63776506 [kcal/mol]     -65.42840901 [kJ/mol]
      Disp21                        0.21244040 [mEh]       0.13330837 [kcal/mol]       0.55776220 [kJ/mol]
      Disp22 (SDQ)                 -3.19316642 [mEh]      -2.00374218 [kcal/mol]      -8.38365728 [kJ/mol]
      Disp22 (T)                   -4.59462545 [mEh]      -2.88317100 [kcal/mol]     -12.06318745 [kJ/mol]
      Est. Disp22 (T)              -5.43979561 [mEh]      -3.41352328 [kcal/mol]     -14.28218141 [kJ/mol]
      Exch-Disp20                   6.43570905 [mEh]       4.03846840 [kcal/mol]      16.89695177 [kJ/mol]

  Total HF                       -123.25890435 [mEh]     -77.34613021 [kcal/mol]    -323.61620880 [kJ/mol]
  Total SAPT0                    -141.74356020 [mEh]     -88.94542687 [kcal/mol]    -372.14766604 [kJ/mol]
  Total SAPT2                    -129.53515289 [mEh]     -81.28453562 [kcal/mol]    -340.09449705 [kJ/mol]
  Total SAPT2+                   -137.95567452 [mEh]     -86.56849272 [kcal/mol]    -362.20257354 [kJ/mol]

  Special recipe for scaled SAPT0 (see Manual):
    Electrostatics sSAPT0        -143.25231478 [mEh]     -89.89218467 [kcal/mol]    -376.10890065 [kJ/mol]
    Exchange sSAPT0                61.83917955 [mEh]      38.80467102 [kcal/mol]     162.35874354 [kJ/mol]
    Induction sSAPT0              -42.30249344 [mEh]     -26.54521540 [kcal/mol]    -111.06518123 [kJ/mol]
    Dispersion sSAPT0             -18.64065208 [mEh]     -11.69718578 [kcal/mol]     -48.94102528 [kJ/mol]
  Total sSAPT0                   -142.35628075 [mEh]     -89.32991482 [kcal/mol]    -373.75636363 [kJ/mol]
  --------------------------------------------------------------------------------------------------------

*** Psi4 exiting successfully. Buy a developer a beer!
