                               Psi4 1.8.2 release

  ==> Input File <==

--------------------------------------------------------------------------
MEMORY 60 GB

molecule dimer {
-1 1
F      0.000000     0.000000     0.000000
--
0 1
O      1.687657     1.316846    -1.965167
H      2.588408     1.564995    -1.727402
H      1.164304     1.175955    -1.161700
O     -1.464850     2.221854    -0.966651
H     -1.553513     2.085937    -1.894647
H     -0.984980     1.460650    -0.640983
O      1.779926    -1.980227    -0.972180
H      1.031895    -1.360303    -0.763898
H      1.804884    -2.133995    -1.896560
O     -1.058445    -2.339141     1.291056
H     -0.708302    -3.070607     0.723884
H     -0.765571    -1.555023     0.855966
O     -1.517699    -1.121248    -1.892872
H     -2.456826    -0.756113    -1.965467
H     -1.021022    -0.535627    -1.187547

units ang
no_reorient
no_com
symmetry c1
}

set {
basis        aug-cc-pVTZ
scf_type     df
}

energy("sapt2+")
--------------------------------------------------------------------------

  //              Dimer HF             //
    Molecular point group: c1
  Charge       = -1
  Multiplicity = 1
  Basis Set: AUG-CC-PVTZ
    Blend: AUG-CC-PVTZ
  Basis Set: (AUG-CC-PVTZ AUX)
    Blend: AUG-CC-PVTZ-JKFIT
  @DF-RHF Final Energy:  -479.85196486998575
    Total Energy =                       -479.8519648699857498
 Dipole X            :         10.7633386          -10.3708378            0.3925008
 Dipole Y            :         35.4083161          -34.6565548            0.7517613
 Dipole Z            :         86.5452801          -86.3696793            0.1756007
 Magnitude           :                                                    0.8660471
  //            Monomer A HF           //
    Molecular point group: c1
  Multiplicity = 1
  Basis Set: AUG-CC-PVTZ
    Blend: AUG-CC-PVTZ
  Basis Set: (AUG-CC-PVTZ AUX)
    Blend: AUG-CC-PVTZ-JKFIT
  @DF-RHF Final Energy:   -99.45111848033400
    Total Energy =                        -99.4511184803340029
  //            Monomer B HF           //
    Molecular point group: c1

    Geometry (in Angstrom), charge = 0, multiplicity = 1:

       Center              X                  Y                   Z               Mass
    ------------   -----------------  -----------------  -----------------  -----------------
      Gh(F)           0.000000000000     0.000000000000     0.000000000000    18.998403162730
         O            1.687657000000     1.316846000000    -1.965167000000    15.994914619570
         H            2.588408000000     1.564995000000    -1.727402000000     1.007825032230
         H            1.164304000000     1.175955000000    -1.161700000000     1.007825032230
         O           -1.464850000000     2.221854000000    -0.966651000000    15.994914619570
         H           -1.553513000000     2.085937000000    -1.894647000000     1.007825032230
         H           -0.984980000000     1.460650000000    -0.640983000000     1.007825032230
         O            1.779926000000    -1.980227000000    -0.972180000000    15.994914619570
         H            1.031895000000    -1.360303000000    -0.763898000000     1.007825032230
         H            1.804884000000    -2.133995000000    -1.896560000000     1.007825032230
         O           -1.058445000000    -2.339141000000     1.291056000000    15.994914619570
         H           -0.708302000000    -3.070607000000     0.723884000000     1.007825032230
         H           -0.765571000000    -1.555023000000     0.855966000000     1.007825032230
         O           -1.517699000000    -1.121248000000    -1.892872000000    15.994914619570
         H           -2.456826000000    -0.756113000000    -1.965467000000     1.007825032230
         H           -1.021022000000    -0.535627000000    -1.187547000000     1.007825032230

  Charge       = 0
  Multiplicity = 1
  Basis Set: AUG-CC-PVTZ
    Blend: AUG-CC-PVTZ
  Basis Set: (AUG-CC-PVTZ AUX)
    Blend: AUG-CC-PVTZ-JKFIT

    Orbital Energies [Eh]
    ---------------------

    Doubly Occupied:

       1A    -20.611394     2A    -20.591751     3A    -20.586071
       4A    -20.577982     5A    -20.573579     6A     -1.383938
       7A     -1.365489     8A     -1.358962     9A     -1.355213
      10A     -1.352735    11A     -0.754685    12A     -0.742978
      13A     -0.736781    14A     -0.721436    15A     -0.714741
      16A     -0.615833    17A     -0.595720    18A     -0.593065
      19A     -0.589822    20A     -0.585302    21A     -0.540171
      22A     -0.537114    23A     -0.529848    24A     -0.516082
      25A     -0.512566

  @DF-RHF Final Energy:  -380.26883246408050

   => Energetics <=

    Nuclear Repulsion Energy =            182.3830846340856340
    One-Electron Energy =                -887.2173135367556824
    Two-Electron Energy =                 324.5653964385895165
    Total Energy =                       -380.2688324640805035
 Dipole X            :         10.5122838          -10.3708378            0.1414461
 Dipole Y            :         35.0616506          -34.6565548            0.4050958
 Dipole Z            :         85.7202627          -86.3696793           -0.6494167
 Magnitude           :                                                    0.7783647

    SAPT Results
  --------------------------------------------------------------------------------------------------------
    Electrostatics               -154.41934681 [mEh]     -96.89960306 [kcal/mol]    -405.42793919 [kJ/mol]
      Elst10,r                   -153.58221596 [mEh]     -96.37429552 [kcal/mol]    -403.23005245 [kJ/mol]
      Elst12,r                     -0.83713085 [mEh]      -0.52530754 [kcal/mol]      -2.19788674 [kJ/mol]

    Exchange                      101.02329151 [mEh]      63.39307249 [kcal/mol]     265.23661531 [kJ/mol]
      Exch10                       76.25447237 [mEh]      47.85040383 [kcal/mol]     200.20608962 [kJ/mol]
      Exch10(S^2)                  76.57474745 [mEh]      48.05137948 [kcal/mol]     201.04697174 [kJ/mol]
      Exch11(S^2)                   1.63770408 [mEh]       1.02767483 [kcal/mol]       4.29979147 [kJ/mol]
      Exch12(S^2)                  23.13111506 [mEh]      14.51499384 [kcal/mol]      60.73073422 [kJ/mol]

    Induction                     -64.64341844 [mEh]     -40.56435749 [kcal/mol]    -169.72127174 [kJ/mol]
      Ind20,r                     -66.46153727 [mEh]     -41.70524428 [kcal/mol]    -174.49474207 [kJ/mol]
      Ind22                       -14.67632724 [mEh]      -9.20953439 [kcal/mol]     -38.53269187 [kJ/mol]
      Exch-Ind20,r                 21.37033487 [mEh]      13.41008759 [kcal/mol]      56.10780646 [kJ/mol]
      Exch-Ind22                    4.71909078 [mEh]       2.96127417 [kcal/mol]      12.38997114 [kJ/mol]
      delta HF,r (2)               -9.59497957 [mEh]      -6.02094058 [kcal/mol]     -25.19161540 [kJ/mol]

    Dispersion                    -29.89044629 [mEh]     -18.75653822 [kcal/mol]     -78.47735592 [kJ/mol]
      Disp20                      -28.55645546 [mEh]     -17.91944634 [kcal/mol]     -74.97496348 [kJ/mol]
      Disp21                        0.76170186 [mEh]       0.47797513 [kcal/mol]       1.99984795 [kJ/mol]
      Disp22 (SDQ)                 -3.39301760 [mEh]      -2.12915069 [kcal/mol]      -8.90836648 [kJ/mol]
      Disp22 (T)                   -5.32787930 [mEh]      -3.34329474 [kcal/mol]     -13.98834517 [kJ/mol]
      Est. Disp22 (T)              -6.20330458 [mEh]      -3.89263239 [kcal/mol]     -16.28677392 [kJ/mol]
      Exch-Disp20                   7.50062948 [mEh]       4.70671606 [kcal/mol]      19.69290000 [kJ/mol]

  Total HF                       -132.01392557 [mEh]     -82.83998897 [kcal/mol]    -346.60251384 [kJ/mol]
  Total SAPT0                    -153.06975155 [mEh]     -96.05271924 [kcal/mol]    -401.88457732 [kJ/mol]
  Total SAPT2                    -139.09529972 [mEh]     -87.28361833 [kcal/mol]    -365.19465910 [kJ/mol]
  Total SAPT2+                   -147.92992003 [mEh]     -92.82742628 [kcal/mol]    -388.38995154 [kJ/mol]

  Special recipe for scaled SAPT0 (see Manual):
    Electrostatics sSAPT0        -153.58221596 [mEh]     -96.37429552 [kcal/mol]    -403.23005245 [kJ/mol]
    Exchange sSAPT0                76.25447237 [mEh]      47.85040383 [kcal/mol]     200.20608962 [kJ/mol]
    Induction sSAPT0              -54.95320731 [mEh]     -34.48365820 [kcal/mol]    -144.27962590 [kJ/mol]
    Dispersion sSAPT0             -21.14954739 [mEh]     -13.27154135 [kcal/mol]     -55.52812903 [kJ/mol]
  Total sSAPT0                   -153.43049829 [mEh]     -96.27909124 [kcal/mol]    -402.83171776 [kJ/mol]
  --------------------------------------------------------------------------------------------------------

*** Psi4 exiting successfully. Buy a developer a beer!
