                               Psi4 1.8.2 release

  ==> Input File <==

--------------------------------------------------------------------------
MEMORY 60 GB

molecule dimer {
-1 1
F      0.000000     0.000000     0.000000
--
0 1
O      2.858282    -0.833213     0.651091
H      3.399293     0.024160     0.566205
H      1.903206    -0.625238     0.585710
O      1.868433     2.058308    -1.208021
H      2.540721     2.007336    -0.483762
H      1.227009     1.397810    -1.025747
O     -0.032310    -2.129156    -1.895246
H      0.717469    -2.702061    -1.661178
H     -0.051575    -1.419248    -1.207236
O     -2.451498    -1.582454    -0.217801
H     -1.706112    -0.991466    -0.104451
H     -2.028729    -2.422132     0.060201
O     -1.886662     1.914792    -0.671064
H     -1.332695     2.697518    -0.516387
H     -1.209928     1.217135    -0.609328
O      0.158118    -2.574331     1.157629
H      0.034132    -1.637920     1.237985
H     -0.064963    -2.865203     2.037544

units ang
no_reorient
no_com
symmetry c1
}

set {
basis        aug-cc-pVTZ
scf_type     df
}

energy("sapt2+")
--------------------------------------------------------------------------

  //              Dimer HF             //
    Molecular point group: c1
  Charge       = -1
  Multiplicity = 1
  Basis Set: AUG-CC-PVTZ
    Blend: AUG-CC-PVTZ
  Basis Set: (AUG-CC-PVTZ AUX)
    Blend: AUG-CC-PVTZ-JKFIT
  @DF-RHF Final Energy:  -555.91266280842819
    Total Energy =                       -555.9126628084281947
 Dipole X            :        -12.7101032           14.2536977            1.5435945
 Dipole Y            :         58.3530175          -57.6134807            0.7395368
 Dipole Z            :         37.4382990          -35.1257379            2.3125611
 Magnitude           :                                                    2.8770710
  //            Monomer A HF           //
    Molecular point group: c1
  Multiplicity = 1
  Basis Set: AUG-CC-PVTZ
    Blend: AUG-CC-PVTZ
  Basis Set: (AUG-CC-PVTZ AUX)
    Blend: AUG-CC-PVTZ-JKFIT
  @DF-RHF Final Energy:   -99.45113225400431
    Total Energy =                        -99.4511322540042926
  //            Monomer B HF           //
    Molecular point group: c1

    Geometry (in Angstrom), charge = 0, multiplicity = 1:

       Center              X                  Y                   Z               Mass
    ------------   -----------------  -----------------  -----------------  -----------------
      Gh(F)           0.000000000000     0.000000000000     0.000000000000    18.998403162730
         O            2.858282000000    -0.833213000000     0.651091000000    15.994914619570
         H            3.399293000000     0.024160000000     0.566205000000     1.007825032230
         H            1.903206000000    -0.625238000000     0.585710000000     1.007825032230
         O            1.868433000000     2.058308000000    -1.208021000000    15.994914619570
         H            2.540721000000     2.007336000000    -0.483762000000     1.007825032230
         H            1.227009000000     1.397810000000    -1.025747000000     1.007825032230
         O           -0.032310000000    -2.129156000000    -1.895246000000    15.994914619570
         H            0.717469000000    -2.702061000000    -1.661178000000     1.007825032230
         H           -0.051575000000    -1.419248000000    -1.207236000000     1.007825032230
         O           -2.451498000000    -1.582454000000    -0.217801000000    15.994914619570
         H           -1.706112000000    -0.991466000000    -0.104451000000     1.007825032230
         H           -2.028729000000    -2.422132000000     0.060201000000     1.007825032230
         O           -1.886662000000     1.914792000000    -0.671064000000    15.994914619570
         H           -1.332695000000     2.697518000000    -0.516387000000     1.007825032230
         H           -1.209928000000     1.217135000000    -0.609328000000     1.007825032230
         O            0.158118000000    -2.574331000000     1.157629000000    15.994914619570
         H            0.034132000000    -1.637920000000     1.237985000000     1.007825032230
         H           -0.064963000000    -2.865203000000     2.037544000000     1.007825032230

  Charge       = 0
  Multiplicity = 1
  Basis Set: AUG-CC-PVTZ
    Blend: AUG-CC-PVTZ
  Basis Set: (AUG-CC-PVTZ AUX)
    Blend: AUG-CC-PVTZ-JKFIT

    Orbital Energies [Eh]
    ---------------------

    Doubly Occupied:

       1A    -20.609844     2A    -20.606194     3A    -20.601897
       4A    -20.589299     5A    -20.574575     6A    -20.567889
       7A     -1.405170     8A     -1.383939     9A     -1.366018
      10A     -1.364423    11A     -1.351875    12A     -1.343795
      13A     -0.764776    14A     -0.753435    15A     -0.736418
      16A     -0.721458    17A     -0.714059    18A     -0.696013
      19A     -0.639083    20A     -0.617145    21A     -0.606427
      22A     -0.597861    23A     -0.595383    24A     -0.579665
      25A     -0.550888    26A     -0.543896    27A     -0.537094
      28A     -0.526535    29A     -0.519962    30A     -0.498671

  @DF-RHF Final Energy:  -456.31995858330163

   => Energetics <=

    Nuclear Repulsion Energy =            254.1699803694857565
    One-Electron Energy =               -1135.0524979868623632
    Two-Electron Energy =                 424.5625590340749795
    Total Energy =                       -456.3199585833016272
 Dipole X            :        -12.6857725           14.2536977            1.5679252
 Dipole Y            :         58.0125525          -57.6134807            0.3990718
 Dipole Z            :         37.1889894          -35.1257379            2.0632515
 Magnitude           :                                                    2.6219562

    SAPT Results
  --------------------------------------------------------------------------------------------------------
    Electrostatics               -158.59998991 [mEh]     -99.52299621 [kcal/mol]    -416.40421614 [kJ/mol]
      Elst10,r                   -158.61172713 [mEh]     -99.53036143 [kcal/mol]    -416.43503221 [kJ/mol]
      Elst12,r                      0.01173722 [mEh]       0.00736522 [kcal/mol]       0.03081607 [kJ/mol]

    Exchange                       87.05631398 [mEh]      54.62866177 [kcal/mol]     228.56632087 [kJ/mol]
      Exch10                       63.42803531 [mEh]      39.80169306 [kcal/mol]     166.53028377 [kJ/mol]
      Exch10(S^2)                  63.98144849 [mEh]      40.14896507 [kcal/mol]     167.98326987 [kJ/mol]
      Exch11(S^2)                   1.53792174 [mEh]       0.96506046 [kcal/mol]       4.03781297 [kJ/mol]
      Exch12(S^2)                  22.09035693 [mEh]      13.86190825 [kcal/mol]      57.99822413 [kJ/mol]

    Induction                     -56.07185629 [mEh]     -35.18562103 [kcal/mol]    -147.21663841 [kJ/mol]
      Ind20,r                     -59.23396857 [mEh]     -37.16987645 [kcal/mol]    -155.51876307 [kJ/mol]
      Ind22                       -13.88125729 [mEh]      -8.71062046 [kcal/mol]     -36.44523600 [kJ/mol]
      Exch-Ind20,r                 17.91230132 [mEh]      11.24013877 [kcal/mol]      47.02874062 [kJ/mol]
      Exch-Ind22                    4.19768031 [mEh]       2.63408416 [kcal/mol]      11.02100812 [kJ/mol]
      delta HF,r (2)               -5.06661204 [mEh]      -3.17934706 [kcal/mol]     -13.30238808 [kJ/mol]

    Dispersion                    -29.69483257 [mEh]     -18.63378876 [kcal/mol]     -77.96377218 [kJ/mol]
      Disp20                      -27.45519742 [mEh]     -17.22839649 [kcal/mol]     -72.08361090 [kJ/mol]
      Disp21                        0.49263386 [mEh]       0.30913242 [kcal/mol]       1.29341003 [kJ/mol]
      Disp22 (SDQ)                 -3.57981193 [mEh]      -2.24636590 [kcal/mol]      -9.39879493 [kJ/mol]
      Disp22 (T)                   -5.22417966 [mEh]      -3.27822223 [kcal/mol]     -13.71608179 [kJ/mol]
      Est. Disp22 (T)              -6.13734349 [mEh]      -3.85124119 [kcal/mol]     -16.11359312 [kJ/mol]
      Exch-Disp20                   6.98488641 [mEh]       4.38308239 [kcal/mol]      18.33881673 [kJ/mol]

  Total HF                       -141.57197112 [mEh]     -88.83775310 [kcal/mol]    -371.69715897 [kJ/mol]
  Total SAPT0                    -162.04228214 [mEh]    -101.68306719 [kcal/mol]    -425.44195314 [kJ/mol]
  Total SAPT2                    -148.08584323 [mEh]     -92.92526956 [kcal/mol]    -388.79932785 [kJ/mol]
  Total SAPT2+                   -157.31036479 [mEh]     -98.71374423 [kcal/mol]    -413.01830587 [kJ/mol]

  Special recipe for scaled SAPT0 (see Manual):
    Electrostatics sSAPT0        -158.61172713 [mEh]     -99.53036143 [kcal/mol]    -416.43503221 [kJ/mol]
    Exchange sSAPT0                63.42803531 [mEh]      39.80169306 [kcal/mol]     166.53028377 [kJ/mol]
    Induction sSAPT0              -46.84907264 [mEh]     -29.39823692 [kcal/mol]    -123.00222326 [kJ/mol]
    Dispersion sSAPT0             -20.64999698 [mEh]     -12.95806874 [kcal/mol]     -54.21655959 [kJ/mol]
  Total sSAPT0                   -162.68276143 [mEh]    -102.08497402 [kcal/mol]    -427.12353130 [kJ/mol]
  --------------------------------------------------------------------------------------------------------

*** Psi4 exiting successfully. Buy a developer a beer!
