                               Psi4 1.8.2 release

  ==> Input File <==

--------------------------------------------------------------------------
MEMORY 60 GB

molecule dimer {
-1 1
F      0.000000     0.000000     0.000000
--
0 1
O      1.599440     1.216847     1.915026
H      1.076424     0.939159     1.131161
H      2.405637     0.730202     1.630886
O     -1.950120     1.489343     1.254761
H     -2.210763     2.196777     0.595546
H     -1.188356     1.080520     0.800691
O      2.106700    -1.786745     0.194161
H      1.282870    -1.276896     0.082122
H      2.847852    -1.236742     0.198292
O     -1.971584    -2.024256    -0.027666
H     -2.186941    -2.154435     0.910808
H     -1.329755    -1.251018    -0.064590
O      0.901895     0.402744    -2.703264
H      0.603349     0.310057    -1.796013
H      1.403576     1.255826    -2.725926

units ang
no_reorient
no_com
symmetry c1
}

set {
basis        aug-cc-pVTZ
scf_type     df
}

energy("sapt2+")
--------------------------------------------------------------------------

  //              Dimer HF             //
    Molecular point group: c1
  Charge       = -1
  Multiplicity = 1
  Basis Set: AUG-CC-PVTZ
    Blend: AUG-CC-PVTZ
  Basis Set: (AUG-CC-PVTZ AUX)
    Blend: AUG-CC-PVTZ-JKFIT
  @DF-RHF Final Energy:  -479.85616784971222
    Total Energy =                       -479.8561678497122216
 Dipole X            :        -14.7951860           15.4854382            0.6902522
 Dipole Y            :         10.8109614           -9.4922568            1.3187045
 Dipole Z            :        -11.4065896           11.0116628           -0.3949268
 Magnitude           :                                                    1.5399341
  //            Monomer A HF           //
    Molecular point group: c1
  Multiplicity = 1
  Basis Set: AUG-CC-PVTZ
    Blend: AUG-CC-PVTZ
  Basis Set: (AUG-CC-PVTZ AUX)
    Blend: AUG-CC-PVTZ-JKFIT
  @DF-RHF Final Energy:   -99.45111317790828
    Total Energy =                        -99.4511131779082831
  //            Monomer B HF           //
    Molecular point group: c1

    Geometry (in Angstrom), charge = 0, multiplicity = 1:

       Center              X                  Y                   Z               Mass
    ------------   -----------------  -----------------  -----------------  -----------------
      Gh(F)           0.000000000000     0.000000000000     0.000000000000    18.998403162730
         O            1.599440000000     1.216847000000     1.915026000000    15.994914619570
         H            1.076424000000     0.939159000000     1.131161000000     1.007825032230
         H            2.405637000000     0.730202000000     1.630886000000     1.007825032230
         O           -1.950120000000     1.489343000000     1.254761000000    15.994914619570
         H           -2.210763000000     2.196777000000     0.595546000000     1.007825032230
         H           -1.188356000000     1.080520000000     0.800691000000     1.007825032230
         O            2.106700000000    -1.786745000000     0.194161000000    15.994914619570
         H            1.282870000000    -1.276896000000     0.082122000000     1.007825032230
         H            2.847852000000    -1.236742000000     0.198292000000     1.007825032230
         O           -1.971584000000    -2.024256000000    -0.027666000000    15.994914619570
         H           -2.186941000000    -2.154435000000     0.910808000000     1.007825032230
         H           -1.329755000000    -1.251018000000    -0.064590000000     1.007825032230
         O            0.901895000000     0.402744000000    -2.703264000000    15.994914619570
         H            0.603349000000     0.310057000000    -1.796013000000     1.007825032230
         H            1.403576000000     1.255826000000    -2.725926000000     1.007825032230

  Charge       = 0
  Multiplicity = 1
  Basis Set: AUG-CC-PVTZ
    Blend: AUG-CC-PVTZ
  Basis Set: (AUG-CC-PVTZ AUX)
    Blend: AUG-CC-PVTZ-JKFIT

    Orbital Energies [Eh]
    ---------------------

    Doubly Occupied:

       1A    -20.605698     2A    -20.598350     3A    -20.597220
       4A    -20.591643     5A    -20.583496     6A     -1.383247
       7A     -1.377083     8A     -1.372528     9A     -1.363059
      10A     -1.348191    11A     -0.765379    12A     -0.737990
      13A     -0.722599    14A     -0.715388    15A     -0.708104
      16A     -0.631507    17A     -0.607260    18A     -0.606247
      19A     -0.597557    20A     -0.586042    21A     -0.542518
      22A     -0.537074    23A     -0.532574    24A     -0.531434
      25A     -0.517476

  @DF-RHF Final Energy:  -380.26416312250598

   => Energetics <=

    Nuclear Repulsion Energy =            172.6777175362287551
    One-Electron Energy =                -867.5644282464387516
    Two-Electron Energy =                 314.6225475877039912
    Total Energy =                       -380.2641631225059768
 Dipole X            :        -14.6598342           15.4854382            0.8256041
 Dipole Y            :         10.7741786           -9.4922568            1.2819218
 Dipole Z            :        -11.2559950           11.0116628           -0.2443322
 Magnitude           :                                                    1.5442291

    SAPT Results
  --------------------------------------------------------------------------------------------------------
    Electrostatics               -168.33186743 [mEh]    -105.62984155 [kcal/mol]    -441.95525704 [kJ/mol]
      Elst10,r                   -168.07218675 [mEh]    -105.46688946 [kcal/mol]    -441.27346552 [kJ/mol]
      Elst12,r                     -0.25968067 [mEh]      -0.16295208 [kcal/mol]      -0.68179152 [kJ/mol]

    Exchange                      105.81311588 [mEh]      66.39873266 [kcal/mol]     277.81229746 [kJ/mol]
      Exch10                       79.26165981 [mEh]      49.73744244 [kcal/mol]     208.10145916 [kJ/mol]
      Exch10(S^2)                  80.25831058 [mEh]      50.36285024 [kcal/mol]     210.71816539 [kJ/mol]
      Exch11(S^2)                   1.68274924 [mEh]       1.05594109 [kcal/mol]       4.41805752 [kJ/mol]
      Exch12(S^2)                  24.86870683 [mEh]      15.60534913 [kcal/mol]      65.29278077 [kJ/mol]

    Induction                     -62.30891828 [mEh]     -39.09943652 [kcal/mol]    -163.59204240 [kJ/mol]
      Ind20,r                     -67.01553920 [mEh]     -42.05288574 [kcal/mol]    -175.94927393 [kJ/mol]
      Ind22                       -15.13551993 [mEh]      -9.49768215 [kcal/mol]     -39.73830209 [kJ/mol]
      Exch-Ind20,r                 21.72948605 [mEh]      13.63545836 [kcal/mol]      57.05075776 [kJ/mol]
      Exch-Ind22                    4.90762401 [mEh]       3.07958056 [kcal/mol]      12.88496506 [kJ/mol]
      delta HF,r (2)               -6.79496921 [mEh]      -4.26390755 [kcal/mol]     -17.84018920 [kJ/mol]

    Dispersion                    -31.82901616 [mEh]     -19.97300918 [kcal/mol]     -83.56707042 [kJ/mol]
      Disp20                      -30.22065261 [mEh]     -18.96374582 [kcal/mol]     -79.34431250 [kJ/mol]
      Disp21                        0.54948121 [mEh]       0.34480467 [kcal/mol]       1.44266273 [kJ/mol]
      Disp22 (SDQ)                 -3.67328607 [mEh]      -2.30502181 [kcal/mol]      -9.64421124 [kJ/mol]
      Disp22 (T)                   -5.69847184 [mEh]      -3.57584507 [kcal/mol]     -14.96133576 [kJ/mol]
      Est. Disp22 (T)              -6.60785867 [mEh]      -4.14649392 [kcal/mol]     -17.34893055 [kJ/mol]
      Exch-Disp20                   8.12329997 [mEh]       5.09744769 [kcal/mol]      21.32772114 [kJ/mol]

  Total HF                       -140.89154930 [mEh]     -88.41078196 [kcal/mol]    -369.91071172 [kJ/mol]
  Total SAPT0                    -162.98890194 [mEh]    -102.27708009 [kcal/mol]    -427.92730308 [kJ/mol]
  Total SAPT2                    -146.92502247 [mEh]     -92.19684353 [kcal/mol]    -385.75159334 [kJ/mol]
  Total SAPT2+                   -156.65668599 [mEh]     -98.30355459 [kcal/mol]    -411.30207240 [kJ/mol]

  Special recipe for scaled SAPT0 (see Manual):
    Electrostatics sSAPT0        -168.07218675 [mEh]    -105.46688946 [kcal/mol]    -441.27346552 [kJ/mol]
    Exchange sSAPT0                79.26165981 [mEh]      49.73744244 [kcal/mol]     208.10145916 [kJ/mol]
    Induction sSAPT0              -52.88052417 [mEh]     -33.18302990 [kcal/mol]    -138.83779708 [kJ/mol]
    Dispersion sSAPT0             -22.39623652 [mEh]     -14.05385059 [kcal/mol]     -58.80131088 [kJ/mol]
  Total sSAPT0                   -164.08728763 [mEh]    -102.96632751 [kcal/mol]    -430.81111432 [kJ/mol]
  --------------------------------------------------------------------------------------------------------

*** Psi4 exiting successfully. Buy a developer a beer!
