                               Psi4 1.8.2 release

  ==> Input File <==

--------------------------------------------------------------------------
MEMORY 60 GB

molecule dimer {
-1 1
F      0.000000     0.000000     0.000000
--
0 1
O     -2.418799     1.224952     0.138152
H     -2.380526     2.080135     0.563174
H     -1.516178     0.901788     0.092656
O      3.034813     0.347968     0.575749
H      3.211453     0.285459     1.525305
H      2.055606     0.112398     0.351073
O     -0.259645    -2.392526    -1.185459
H     -0.386119    -2.819401    -0.326599
H     -0.049678    -1.447133    -1.040451
O      1.007946    -1.594929     2.050955
H      0.819578    -2.573084     2.042697
H      0.499845    -1.168256     1.317571
O      0.179580     0.924429    -2.718430
H      0.785527     0.233681    -3.049861
H      0.103012     0.856389    -1.777860

units ang
no_reorient
no_com
symmetry c1
}

set {
basis        aug-cc-pVTZ
scf_type     df
}

energy("sapt2+")
--------------------------------------------------------------------------

  //              Dimer HF             //
    Molecular point group: c1
  Charge       = -1
  Multiplicity = 1
  Basis Set: AUG-CC-PVTZ
    Blend: AUG-CC-PVTZ
  Basis Set: (AUG-CC-PVTZ AUX)
    Blend: AUG-CC-PVTZ-JKFIT
  @DF-RHF Final Energy:  -479.85213949611597
    Total Energy =                       -479.8521394961159672
 Dipole X            :        -29.3500614           29.2788119           -0.0712496
 Dipole Y            :         29.1032957          -29.2130343           -0.1097385
 Dipole Z            :         19.1731670          -17.7909381            1.3822289
 Magnitude           :                                                    1.3884076
  //            Monomer A HF           //
    Molecular point group: c1
  Multiplicity = 1
  Basis Set: AUG-CC-PVTZ
    Blend: AUG-CC-PVTZ
  Basis Set: (AUG-CC-PVTZ AUX)
    Blend: AUG-CC-PVTZ-JKFIT
  @DF-RHF Final Energy:   -99.45110705643891
    Total Energy =                        -99.4511070564389001
  //            Monomer B HF           //
    Molecular point group: c1

    Geometry (in Angstrom), charge = 0, multiplicity = 1:

       Center              X                  Y                   Z               Mass
    ------------   -----------------  -----------------  -----------------  -----------------
      Gh(F)           0.000000000000     0.000000000000     0.000000000000    18.998403162730
         O           -2.418799000000     1.224952000000     0.138152000000    15.994914619570
         H           -2.380526000000     2.080135000000     0.563174000000     1.007825032230
         H           -1.516178000000     0.901788000000     0.092656000000     1.007825032230
         O            3.034813000000     0.347968000000     0.575749000000    15.994914619570
         H            3.211453000000     0.285459000000     1.525305000000     1.007825032230
         H            2.055606000000     0.112398000000     0.351073000000     1.007825032230
         O           -0.259645000000    -2.392526000000    -1.185459000000    15.994914619570
         H           -0.386119000000    -2.819401000000    -0.326599000000     1.007825032230
         H           -0.049678000000    -1.447133000000    -1.040451000000     1.007825032230
         O            1.007946000000    -1.594929000000     2.050955000000    15.994914619570
         H            0.819578000000    -2.573084000000     2.042697000000     1.007825032230
         H            0.499845000000    -1.168256000000     1.317571000000     1.007825032230
         O            0.179580000000     0.924429000000    -2.718430000000    15.994914619570
         H            0.785527000000     0.233681000000    -3.049861000000     1.007825032230
         H            0.103012000000     0.856389000000    -1.777860000000     1.007825032230

  Charge       = 0
  Multiplicity = 1
  Basis Set: AUG-CC-PVTZ
    Blend: AUG-CC-PVTZ
  Basis Set: (AUG-CC-PVTZ AUX)
    Blend: AUG-CC-PVTZ-JKFIT

    Orbital Energies [Eh]
    ---------------------

    Doubly Occupied:

       1A    -20.607561     2A    -20.598491     3A    -20.586126
       4A    -20.582373     5A    -20.578354     6A     -1.373882
       7A     -1.371323     8A     -1.370086     9A     -1.364765
      10A     -1.336332    11A     -0.749708    12A     -0.744590
      13A     -0.744139    14A     -0.738436    15A     -0.715747
      16A     -0.614898    17A     -0.599246    18A     -0.596462
      19A     -0.588879    20A     -0.571878    21A     -0.542094
      22A     -0.535983    23A     -0.528886    24A     -0.523809
      25A     -0.511312

  @DF-RHF Final Energy:  -380.26918554709766

   => Energetics <=

    Nuclear Repulsion Energy =            173.5814132144322741
    One-Electron Energy =                -869.5504752646220368
    Two-Electron Energy =                 315.6998765030921277
    Total Energy =                       -380.2691855470976634
 Dipole X            :        -29.2317477           29.2788119            0.0470642
 Dipole Y            :         28.7730577          -29.2130343           -0.4399766
 Dipole Z            :         19.1036741          -17.7909381            1.3127360
 Magnitude           :                                                    1.3853051

    SAPT Results
  --------------------------------------------------------------------------------------------------------
    Electrostatics               -157.03778292 [mEh]     -98.54269652 [kcal/mol]    -412.30264225 [kJ/mol]
      Elst10,r                   -156.35615669 [mEh]     -98.11496961 [kcal/mol]    -410.51303284 [kJ/mol]
      Elst12,r                     -0.68162623 [mEh]      -0.42772692 [kcal/mol]      -1.78960942 [kJ/mol]

    Exchange                       98.01709297 [mEh]      61.50665443 [kcal/mol]     257.34384213 [kJ/mol]
      Exch10                       73.41644638 [mEh]      46.06951564 [kcal/mol]     192.75485342 [kJ/mol]
      Exch10(S^2)                  74.11316353 [mEh]      46.50671225 [kcal/mol]     194.58408405 [kJ/mol]
      Exch11(S^2)                   1.33580863 [mEh]       0.83823257 [kcal/mol]       3.50716507 [kJ/mol]
      Exch12(S^2)                  23.26483796 [mEh]      14.59890622 [kcal/mol]      61.08182364 [kJ/mol]

    Induction                     -58.63180778 [mEh]     -36.79201484 [kcal/mol]    -153.93779011 [kJ/mol]
      Ind20,r                     -63.38396616 [mEh]     -39.77403925 [kcal/mol]    -166.41458023 [kJ/mol]
      Ind22                       -14.58602526 [mEh]      -9.15286904 [kcal/mol]     -38.29560406 [kJ/mol]
      Exch-Ind20,r                 21.12534377 [mEh]      13.25635335 [kcal/mol]      55.46458243 [kJ/mol]
      Exch-Ind22                    4.86139976 [mEh]       3.05057441 [kcal/mol]      12.76360332 [kJ/mol]
      delta HF,r (2)               -6.64855988 [mEh]      -4.17203431 [kcal/mol]     -17.45579157 [kJ/mol]

    Dispersion                    -29.67065032 [mEh]     -18.61861417 [kcal/mol]     -77.90028168 [kJ/mol]
      Disp20                      -28.05446175 [mEh]     -17.60444053 [kcal/mol]     -73.65697917 [kJ/mol]
      Disp21                        0.45957400 [mEh]       0.28838704 [kcal/mol]       1.20661138 [kJ/mol]
      Disp22 (SDQ)                 -3.43209170 [mEh]      -2.15367006 [kcal/mol]      -9.01095553 [kJ/mol]
      Disp22 (T)                   -5.25688243 [mEh]      -3.29874353 [kcal/mol]     -13.80194292 [kJ/mol]
      Est. Disp22 (T)              -6.13024912 [mEh]      -3.84678940 [kcal/mol]     -16.09496685 [kJ/mol]
      Exch-Disp20                   7.48657825 [mEh]       4.69789878 [kcal/mol]      19.65600850 [kJ/mol]

  Total HF                       -131.84689258 [mEh]     -82.73517418 [kcal/mol]    -346.16396878 [kJ/mol]
  Total SAPT0                    -152.41477607 [mEh]     -95.64171593 [kcal/mol]    -400.16493945 [kJ/mol]
  Total SAPT2                    -138.22038122 [mEh]     -86.73459869 [kcal/mol]    -362.89756090 [kJ/mol]
  Total SAPT2+                   -147.32314805 [mEh]     -92.44667111 [kcal/mol]    -386.79687190 [kJ/mol]

  Special recipe for scaled SAPT0 (see Manual):
    Electrostatics sSAPT0        -156.35615669 [mEh]     -98.11496961 [kcal/mol]    -410.51303284 [kJ/mol]
    Exchange sSAPT0                73.41644638 [mEh]      46.06951564 [kcal/mol]     192.75485342 [kJ/mol]
    Induction sSAPT0              -49.49737943 [mEh]     -31.06007452 [kcal/mol]    -129.95535178 [kJ/mol]
    Dispersion sSAPT0             -20.77704256 [mEh]     -13.03779104 [kcal/mol]     -54.55011773 [kJ/mol]
  Total sSAPT0                   -153.21413229 [mEh]     -96.14331953 [kcal/mol]    -402.26364892 [kJ/mol]
  --------------------------------------------------------------------------------------------------------

*** Psi4 exiting successfully. Buy a developer a beer!
