                               Psi4 1.8.2 release

  ==> Input File <==

--------------------------------------------------------------------------
MEMORY 60 GB

molecule dimer {
-1 1
F      0.000000     0.000000     0.000000
--
0 1
O      2.168807     1.707714    -0.355893
H      2.073389     2.313978     0.418100
H      1.432893     1.055999    -0.259639
O     -0.026158     0.744940     2.521287
H      0.010483     0.423758     1.592003
H     -0.458684     1.649632     2.480823
O      1.794697    -1.829527    -1.647068
H      1.108505    -1.229676    -1.232109
H      2.212978    -2.403178    -0.980161
O     -1.647590     2.228935    -0.142764
H     -1.627566     2.508274    -1.084550
H     -1.043895     1.472816    -0.082986
O     -1.812943    -1.946993    -0.037439
H     -1.220264    -1.242475    -0.256203
H     -2.477282    -2.005238    -0.795925

units ang
no_reorient
no_com
symmetry c1
}

set {
basis        aug-cc-pVTZ
scf_type     df
}

energy("sapt2+")
--------------------------------------------------------------------------

  //              Dimer HF             //
    Molecular point group: c1
  Charge       = -1
  Multiplicity = 1
  Basis Set: AUG-CC-PVTZ
    Blend: AUG-CC-PVTZ
  Basis Set: (AUG-CC-PVTZ AUX)
    Blend: AUG-CC-PVTZ-JKFIT
  @DF-RHF Final Energy:  -479.85584528457775
    Total Energy =                       -479.8558452845777538
 Dipole X            :         -7.8179129            7.2283177           -0.5895952
 Dipole Y            :        -18.2990532           18.4899157            0.1908625
 Dipole Z            :         -5.4343483            4.7325111           -0.7018372
 Magnitude           :                                                    0.9362833
  //            Monomer A HF           //
    Molecular point group: c1
  Multiplicity = 1
  Basis Set: AUG-CC-PVTZ
    Blend: AUG-CC-PVTZ
  Basis Set: (AUG-CC-PVTZ AUX)
    Blend: AUG-CC-PVTZ-JKFIT
  @DF-RHF Final Energy:   -99.45112900308413
    Total Energy =                        -99.4511290030841337
  //            Monomer B HF           //
    Molecular point group: c1

    Geometry (in Angstrom), charge = 0, multiplicity = 1:

       Center              X                  Y                   Z               Mass
    ------------   -----------------  -----------------  -----------------  -----------------
      Gh(F)           0.000000000000     0.000000000000     0.000000000000    18.998403162730
         O            2.168807000000     1.707714000000    -0.355893000000    15.994914619570
         H            2.073389000000     2.313978000000     0.418100000000     1.007825032230
         H            1.432893000000     1.055999000000    -0.259639000000     1.007825032230
         O           -0.026158000000     0.744940000000     2.521287000000    15.994914619570
         H            0.010483000000     0.423758000000     1.592003000000     1.007825032230
         H           -0.458684000000     1.649632000000     2.480823000000     1.007825032230
         O            1.794697000000    -1.829527000000    -1.647068000000    15.994914619570
         H            1.108505000000    -1.229676000000    -1.232109000000     1.007825032230
         H            2.212978000000    -2.403178000000    -0.980161000000     1.007825032230
         O           -1.647590000000     2.228935000000    -0.142764000000    15.994914619570
         H           -1.627566000000     2.508274000000    -1.084550000000     1.007825032230
         H           -1.043895000000     1.472816000000    -0.082986000000     1.007825032230
         O           -1.812943000000    -1.946993000000    -0.037439000000    15.994914619570
         H           -1.220264000000    -1.242475000000    -0.256203000000     1.007825032230
         H           -2.477282000000    -2.005238000000    -0.795925000000     1.007825032230

  Charge       = 0
  Multiplicity = 1
  Basis Set: AUG-CC-PVTZ
    Blend: AUG-CC-PVTZ
  Basis Set: (AUG-CC-PVTZ AUX)
    Blend: AUG-CC-PVTZ-JKFIT

    Orbital Energies [Eh]
    ---------------------

    Doubly Occupied:

       1A    -20.603068     2A    -20.593477     3A    -20.592336
       4A    -20.591485     5A    -20.583389     6A     -1.376853
       7A     -1.364536     8A     -1.358083     9A     -1.355119
      10A     -1.347838    11A     -0.745181    12A     -0.733992
      13A     -0.728245    14A     -0.722798    15A     -0.718560
      16A     -0.612354    17A     -0.600290    18A     -0.597510
      19A     -0.591521    20A     -0.579232    21A     -0.541766
      22A     -0.529760    23A     -0.528074    24A     -0.524970
      25A     -0.518353

  @DF-RHF Final Energy:  -380.26797108939223

   => Energetics <=

    Nuclear Repulsion Energy =            173.6215836779331596
    One-Electron Energy =                -869.7015271362728299
    Two-Electron Energy =                 315.8119723689474654
    Total Energy =                       -380.2679710893922334
 Dipole X            :         -7.8472312            7.2283177           -0.6189135
 Dipole Y            :        -17.9832760           18.4899157            0.5066396
 Dipole Z            :         -5.2536315            4.7325111           -0.5211205
 Magnitude           :                                                    0.9546225

    SAPT Results
  --------------------------------------------------------------------------------------------------------
    Electrostatics               -172.71017266 [mEh]    -108.37726956 [kcal/mol]    -453.45049585 [kJ/mol]
      Elst10,r                   -171.74292658 [mEh]    -107.77031348 [kcal/mol]    -450.91099162 [kJ/mol]
      Elst12,r                     -0.96724608 [mEh]      -0.60695608 [kcal/mol]      -2.53950423 [kJ/mol]

    Exchange                      119.94145552 [mEh]      75.26439964 [kcal/mol]     314.90624809 [kJ/mol]
      Exch10                       91.33685265 [mEh]      57.31474034 [kcal/mol]     239.80487359 [kJ/mol]
      Exch10(S^2)                  92.25058885 [mEh]      57.88811846 [kcal/mol]     242.20388765 [kJ/mol]
      Exch11(S^2)                   1.68639959 [mEh]       1.05823172 [kcal/mol]       4.42764151 [kJ/mol]
      Exch12(S^2)                  26.91820329 [mEh]      16.89142758 [kcal/mol]      70.67373299 [kJ/mol]

    Induction                     -67.20258615 [mEh]     -42.17025947 [kcal/mol]    -176.44036563 [kJ/mol]
      Ind20,r                     -73.81203535 [mEh]     -46.31775146 [kcal/mol]    -193.79347210 [kJ/mol]
      Ind22                       -16.66083313 [mEh]     -10.45483063 [kcal/mol]     -43.74301136 [kJ/mol]
      Exch-Ind20,r                 25.68390895 [mEh]      16.11689619 [kcal/mol]      67.43309365 [kJ/mol]
      Exch-Ind22                    5.79736515 [mEh]       3.63790155 [kcal/mol]      15.22098009 [kJ/mol]
      delta HF,r (2)               -8.21099177 [mEh]      -5.15247512 [kcal/mol]     -21.55795592 [kJ/mol]

    Dispersion                    -33.77960246 [mEh]     -21.19702057 [kcal/mol]     -88.68833405 [kJ/mol]
      Disp20                      -32.67796242 [mEh]     -20.50573100 [kcal/mol]     -85.79597852 [kJ/mol]
      Disp21                        0.81064170 [mEh]       0.50868535 [kcal/mol]       2.12833950 [kJ/mol]
      Disp22 (SDQ)                 -3.85856731 [mEh]      -2.42128754 [kcal/mol]     -10.13066707 [kJ/mol]
      Disp22 (T)                   -6.07357819 [mEh]      -3.81122786 [kcal/mol]     -15.94617735 [kJ/mol]
      Est. Disp22 (T)              -7.03711832 [mEh]      -4.41585842 [kcal/mol]     -18.47595161 [kJ/mol]
      Exch-Disp20                   8.98340389 [mEh]       5.63717105 [kcal/mol]      23.58592366 [kJ/mol]

  Total HF                       -136.74519210 [mEh]     -85.80890354 [kcal/mol]    -359.02445240 [kJ/mol]
  Total SAPT0                    -160.43975064 [mEh]    -100.67746350 [kcal/mol]    -421.23450727 [kJ/mol]
  Total SAPT2                    -143.66586183 [mEh]     -90.15168936 [kcal/mol]    -377.19466827 [kJ/mol]
  Total SAPT2+                   -153.75090576 [mEh]     -96.48014996 [kcal/mol]    -403.67294745 [kJ/mol]

  Special recipe for scaled SAPT0 (see Manual):
    Electrostatics sSAPT0        -171.74292658 [mEh]    -107.77031348 [kcal/mol]    -450.91099162 [kJ/mol]
    Exchange sSAPT0                91.33685265 [mEh]      57.31474034 [kcal/mol]     239.80487359 [kJ/mol]
    Induction sSAPT0              -57.09477620 [mEh]     -35.82751297 [kcal/mol]    -149.90231425 [kJ/mol]
    Dispersion sSAPT0             -23.95886337 [mEh]     -15.03441375 [kcal/mol]     -62.90398711 [kJ/mol]
  Total sSAPT0                   -161.45971350 [mEh]    -101.31749985 [kcal/mol]    -423.91241939 [kJ/mol]
  --------------------------------------------------------------------------------------------------------

*** Psi4 exiting successfully. Buy a developer a beer!
