                               Psi4 1.8.2 release

  ==> Input File <==

--------------------------------------------------------------------------
MEMORY 60 GB

molecule dimer {
-1 1
F      0.000000     0.000000     0.000000
--
0 1
O      1.817114     1.946444    -0.723175
H      1.018768     1.381289    -1.036039
H      2.133974     1.611845     0.184788
O     -1.618648     2.227966     0.983095
H     -1.190650     1.430225     0.637791
H     -1.783720     2.118152     1.906642
O     -0.955691     1.698319    -2.105695
H     -0.402285     1.876495    -2.895468
H     -1.255684     0.819664    -2.003767
O      1.688096    -0.251298     2.069765
H      2.518079     0.189713     1.984541
H      1.298638    -0.141263     1.240993
O      1.074017    -0.791253    -2.569566
H      1.889382    -0.271590    -2.714166
H      0.775089    -0.600320    -1.647716
O     -1.131261    -2.325104     0.575167
H     -0.809361    -1.464786     0.417327
H     -2.086261    -2.127325     0.545425

units ang
no_reorient
no_com
symmetry c1
}

set {
basis        aug-cc-pVTZ
scf_type     df
}

energy("sapt2+")
--------------------------------------------------------------------------

  //              Dimer HF             //
    Molecular point group: c1
  Charge       = -1
  Multiplicity = 1
  Basis Set: AUG-CC-PVTZ
    Blend: AUG-CC-PVTZ
  Basis Set: (AUG-CC-PVTZ AUX)
    Blend: AUG-CC-PVTZ-JKFIT
  @DF-RHF Final Energy:  -555.89978650138823
    Total Energy =                       -555.8997865013882347
 Dipole X            :        -17.1565157           17.1870308            0.0305150
 Dipole Y            :        -47.1782373           46.9836767           -0.1945606
 Dipole Z            :         33.2219135          -33.1513161            0.0705974
 Magnitude           :                                                    0.2092104
  //            Monomer A HF           //
    Molecular point group: c1
  Multiplicity = 1
  Basis Set: AUG-CC-PVTZ
    Blend: AUG-CC-PVTZ
  Basis Set: (AUG-CC-PVTZ AUX)
    Blend: AUG-CC-PVTZ-JKFIT
  @DF-RHF Final Energy:   -99.45114099363673
    Total Energy =                        -99.4511409936367272
  //            Monomer B HF           //
    Molecular point group: c1

    Geometry (in Angstrom), charge = 0, multiplicity = 1:

       Center              X                  Y                   Z               Mass
    ------------   -----------------  -----------------  -----------------  -----------------
      Gh(F)           0.000000000000     0.000000000000     0.000000000000    18.998403162730
         O            1.817114000000     1.946444000000    -0.723175000000    15.994914619570
         H            1.018768000000     1.381289000000    -1.036039000000     1.007825032230
         H            2.133974000000     1.611845000000     0.184788000000     1.007825032230
         O           -1.618648000000     2.227966000000     0.983095000000    15.994914619570
         H           -1.190650000000     1.430225000000     0.637791000000     1.007825032230
         H           -1.783720000000     2.118152000000     1.906642000000     1.007825032230
         O           -0.955691000000     1.698319000000    -2.105695000000    15.994914619570
         H           -0.402285000000     1.876495000000    -2.895468000000     1.007825032230
         H           -1.255684000000     0.819664000000    -2.003767000000     1.007825032230
         O            1.688096000000    -0.251298000000     2.069765000000    15.994914619570
         H            2.518079000000     0.189713000000     1.984541000000     1.007825032230
         H            1.298638000000    -0.141263000000     1.240993000000     1.007825032230
         O            1.074017000000    -0.791253000000    -2.569566000000    15.994914619570
         H            1.889382000000    -0.271590000000    -2.714166000000     1.007825032230
         H            0.775089000000    -0.600320000000    -1.647716000000     1.007825032230
         O           -1.131261000000    -2.325104000000     0.575167000000    15.994914619570
         H           -0.809361000000    -1.464786000000     0.417327000000     1.007825032230
         H           -2.086261000000    -2.127325000000     0.545425000000     1.007825032230

  Charge       = 0
  Multiplicity = 1
  Basis Set: AUG-CC-PVTZ
    Blend: AUG-CC-PVTZ
  Basis Set: (AUG-CC-PVTZ AUX)
    Blend: AUG-CC-PVTZ-JKFIT

    Orbital Energies [Eh]
    ---------------------

    Doubly Occupied:

       1A    -20.596356     2A    -20.594410     3A    -20.593328
       4A    -20.590823     5A    -20.583643     6A    -20.571143
       7A     -1.398233     8A     -1.382105     9A     -1.371821
      10A     -1.365590    11A     -1.356328    12A     -1.339845
      13A     -0.763126    14A     -0.760617    15A     -0.736208
      16A     -0.733208    17A     -0.728356    18A     -0.714714
      19A     -0.623466    20A     -0.617629    21A     -0.603661
      22A     -0.587831    23A     -0.581413    24A     -0.577933
      25A     -0.541916    26A     -0.538470    27A     -0.533160
      28A     -0.527656    29A     -0.519521    30A     -0.513450

  @DF-RHF Final Energy:  -456.32517813206255

   => Energetics <=

    Nuclear Repulsion Energy =            255.3371874540323461
    One-Electron Energy =               -1137.4328088877782648
    Two-Electron Energy =                 425.7704433016833718
    Total Energy =                       -456.3251781320625469
 Dipole X            :        -16.9849018           17.1870308            0.2021290
 Dipole Y            :        -47.0552716           46.9836767           -0.0715948
 Dipole Z            :         33.1408033          -33.1513161           -0.0105128
 Magnitude           :                                                    0.2146915

    SAPT Results
  --------------------------------------------------------------------------------------------------------
    Electrostatics               -157.56416509 [mEh]     -98.87300632 [kcal/mol]    -413.68465846 [kJ/mol]
      Elst10,r                   -155.18451136 [mEh]     -97.37975106 [kcal/mol]    -407.43687845 [kJ/mol]
      Elst12,r                     -2.37965373 [mEh]      -1.49325526 [kcal/mol]      -6.24778001 [kJ/mol]

    Exchange                      109.64820132 [mEh]      68.80528511 [kcal/mol]     287.88131292 [kJ/mol]
      Exch10                       81.42295116 [mEh]      51.09367323 [kcal/mol]     213.77592881 [kJ/mol]
      Exch10(S^2)                  82.37234529 [mEh]      51.68942705 [kcal/mol]     216.26856277 [kJ/mol]
      Exch11(S^2)                   1.14063494 [mEh]       0.71575923 [kcal/mol]       2.99473661 [kJ/mol]
      Exch12(S^2)                  27.08461523 [mEh]      16.99585265 [kcal/mol]      71.11064749 [kJ/mol]

    Induction                     -60.77242624 [mEh]     -38.13527321 [kcal/mol]    -159.55798310 [kJ/mol]
      Ind20,r                     -68.76505303 [mEh]     -43.15072224 [kcal/mol]    -180.54262185 [kJ/mol]
      Ind22                       -17.29969814 [mEh]     -10.85572447 [kcal/mol]     -45.42035120 [kJ/mol]
      Exch-Ind20,r                 24.77607303 [mEh]      15.54722055 [kcal/mol]      65.04957078 [kJ/mol]
      Exch-Ind22                    6.23308738 [mEh]       3.91132138 [kcal/mol]      16.36496867 [kJ/mol]
      delta HF,r (2)               -5.71683548 [mEh]      -3.58736842 [kcal/mol]     -15.00954949 [kJ/mol]

    Dispersion                    -33.93336742 [mEh]     -21.29350953 [kcal/mol]     -89.09204389 [kJ/mol]
      Disp20                      -32.12447030 [mEh]     -20.15840945 [kcal/mol]     -84.34278514 [kJ/mol]
      Disp21                        0.72136938 [mEh]       0.45266612 [kcal/mol]       1.89395504 [kJ/mol]
      Disp22 (SDQ)                 -4.08923438 [mEh]      -2.56603331 [kcal/mol]     -10.73628339 [kJ/mol]
      Disp22 (T)                   -6.00658688 [mEh]      -3.76919017 [kcal/mol]     -15.77029168 [kJ/mol]
      Est. Disp22 (T)              -7.01843226 [mEh]      -4.40413274 [kcal/mol]     -18.42689136 [kJ/mol]
      Exch-Disp20                   8.57740014 [mEh]       5.38239985 [kcal/mol]      22.51996096 [kJ/mol]

  Total HF                       -123.46737569 [mEh]     -77.47694795 [kcal/mol]    -324.16355021 [kJ/mol]
  Total SAPT0                    -147.01444585 [mEh]     -92.25295755 [kcal/mol]    -385.98637439 [kJ/mol]
  Total SAPT2                    -132.23546016 [mEh]     -82.97900402 [kcal/mol]    -347.18415282 [kJ/mol]
  Total SAPT2+                   -142.62175742 [mEh]     -89.49650395 [kcal/mol]    -374.45337253 [kJ/mol]

  Special recipe for scaled SAPT0 (see Manual):
    Electrostatics sSAPT0        -155.18451136 [mEh]     -97.37975106 [kcal/mol]    -407.43687845 [kJ/mol]
    Exchange sSAPT0                81.42295116 [mEh]      51.09367323 [kcal/mol]     213.77592881 [kJ/mol]
    Induction sSAPT0              -50.55266004 [mEh]     -31.72227310 [kcal/mol]    -132.72599066 [kJ/mol]
    Dispersion sSAPT0             -23.84024513 [mEh]     -14.95997968 [kcal/mol]     -62.59255498 [kJ/mol]
  Total sSAPT0                   -148.15446539 [mEh]     -92.96833061 [kcal/mol]    -388.97949528 [kJ/mol]
  --------------------------------------------------------------------------------------------------------

*** Psi4 exiting successfully. Buy a developer a beer!
