                               Psi4 1.8.2 release

  ==> Input File <==

--------------------------------------------------------------------------
MEMORY 60 GB

molecule dimer {
-1 1
F      0.000000     0.000000     0.000000
--
0 1
O      1.915295    -0.763106     1.924441
H      1.286691    -0.531055     1.264235
H      2.662839    -0.169891     1.770863
O     -1.830911     1.362948     1.404744
H     -2.414198     1.461222     0.672062
H     -1.183612     0.808558     0.986977
O      1.145913     2.301825    -0.946882
H      0.849368     1.425256    -0.632387
H      0.889211     3.015024    -0.341450
O     -0.440059    -0.165284    -2.578451
H     -1.173902     0.512427    -2.648391
H     -0.268164    -0.280289    -1.637521

units ang
no_reorient
no_com
symmetry c1
}

set {
basis        aug-cc-pVTZ
scf_type     df
}

energy("sapt2+")
--------------------------------------------------------------------------

  //              Dimer HF             //
    Molecular point group: c1
  Charge       = -1
  Multiplicity = 1
  Basis Set: AUG-CC-PVTZ
    Blend: AUG-CC-PVTZ
  Basis Set: (AUG-CC-PVTZ AUX)
    Blend: AUG-CC-PVTZ-JKFIT
  @DF-RHF Final Energy:  -403.79327586058724
    Total Energy =                       -403.7932758605872436
 Dipole X            :        -13.7891189           13.1716500           -0.6174690
 Dipole Y            :        -53.1462616           53.1623725            0.0161109
 Dipole Z            :          4.0541584           -4.0341798            0.0199786
 Magnitude           :                                                    0.6180021
  //            Monomer A HF           //
    Molecular point group: c1
  Multiplicity = 1
  Basis Set: AUG-CC-PVTZ
    Blend: AUG-CC-PVTZ
  Basis Set: (AUG-CC-PVTZ AUX)
    Blend: AUG-CC-PVTZ-JKFIT
  @DF-RHF Final Energy:   -99.45107630304068
    Total Energy =                        -99.4510763030406792
  //            Monomer B HF           //
    Molecular point group: c1

    Geometry (in Angstrom), charge = 0, multiplicity = 1:

       Center              X                  Y                   Z               Mass
    ------------   -----------------  -----------------  -----------------  -----------------
      Gh(F)           0.000000000000     0.000000000000     0.000000000000    18.998403162730
         O            1.915295000000    -0.763106000000     1.924441000000    15.994914619570
         H            1.286691000000    -0.531055000000     1.264235000000     1.007825032230
         H            2.662839000000    -0.169891000000     1.770863000000     1.007825032230
         O           -1.830911000000     1.362948000000     1.404744000000    15.994914619570
         H           -2.414198000000     1.461222000000     0.672062000000     1.007825032230
         H           -1.183612000000     0.808558000000     0.986977000000     1.007825032230
         O            1.145913000000     2.301825000000    -0.946882000000    15.994914619570
         H            0.849368000000     1.425256000000    -0.632387000000     1.007825032230
         H            0.889211000000     3.015024000000    -0.341450000000     1.007825032230
         O           -0.440059000000    -0.165284000000    -2.578451000000    15.994914619570
         H           -1.173902000000     0.512427000000    -2.648391000000     1.007825032230
         H           -0.268164000000    -0.280289000000    -1.637521000000     1.007825032230

  Charge       = 0
  Multiplicity = 1
  Basis Set: AUG-CC-PVTZ
    Blend: AUG-CC-PVTZ
  Basis Set: (AUG-CC-PVTZ AUX)
    Blend: AUG-CC-PVTZ-JKFIT

    Orbital Energies [Eh]
    ---------------------

    Doubly Occupied:

       1A    -20.593044     2A    -20.590272     3A    -20.586573
       4A    -20.581995     5A     -1.389905     6A     -1.370914
       7A     -1.361448     8A     -1.358469     9A     -0.744819
      10A     -0.737203    11A     -0.734432    12A     -0.726239
      13A     -0.624254    14A     -0.600031    15A     -0.595379
      16A     -0.585310    17A     -0.537822    18A     -0.531422
      19A     -0.525509    20A     -0.521113

  @DF-RHF Final Energy:  -304.22425000132472

   => Energetics <=

    Nuclear Repulsion Energy =            114.9512145521233037
    One-Electron Energy =                -647.7586170818888149
    Two-Electron Energy =                 228.5831525284408201
    Total Energy =                       -304.2242500013247763
 Dipole X            :        -13.7748774           13.1716500           -0.6032274
 Dipole Y            :        -52.5840502           53.1623725            0.5783223
 Dipole Z            :          3.8994798           -4.0341798           -0.1347000
 Magnitude           :                                                    0.8464538

    SAPT Results
  --------------------------------------------------------------------------------------------------------
    Electrostatics               -151.95490508 [mEh]     -95.35314252 [kcal/mol]    -398.95754832 [kJ/mol]
      Elst10,r                   -151.14640009 [mEh]     -94.84579799 [kcal/mol]    -396.83481877 [kJ/mol]
      Elst12,r                     -0.80850499 [mEh]      -0.50734454 [kcal/mol]      -2.12272955 [kJ/mol]

    Exchange                      106.98404603 [mEh]      67.13350243 [kcal/mol]     280.88657415 [kJ/mol]
      Exch10                       82.08059460 [mEh]      51.50635072 [kcal/mol]     215.50257143 [kJ/mol]
      Exch10(S^2)                  82.66849311 [mEh]      51.87526261 [kcal/mol]     217.04609876 [kJ/mol]
      Exch11(S^2)                   1.14668539 [mEh]       0.71955595 [kcal/mol]       3.01062208 [kJ/mol]
      Exch12(S^2)                  23.75676604 [mEh]      14.90759576 [kcal/mol]      62.37338065 [kJ/mol]

    Induction                     -58.31319010 [mEh]     -36.59207923 [kcal/mol]    -153.10125951 [kJ/mol]
      Ind20,r                     -65.13619366 [mEh]     -40.87357861 [kcal/mol]    -171.01505290 [kJ/mol]
      Ind22                       -15.21074000 [mEh]      -9.54488345 [kcal/mol]     -39.93579236 [kJ/mol]
      Exch-Ind20,r                 24.75697548 [mEh]      15.53523666 [kcal/mol]      64.99943018 [kJ/mol]
      Exch-Ind22                    5.78130063 [mEh]       3.62782091 [kcal/mol]      15.17880270 [kJ/mol]
      delta HF,r (2)               -8.50453255 [mEh]      -5.33667475 [kcal/mol]     -22.32864713 [kJ/mol]

    Dispersion                    -28.67931751 [mEh]     -17.99654344 [kcal/mol]     -75.29753774 [kJ/mol]
      Disp20                      -27.90807967 [mEh]     -17.51258439 [kcal/mol]     -73.27265308 [kJ/mol]
      Disp21                        0.58689831 [mEh]       0.36828425 [kcal/mol]       1.54090130 [kJ/mol]
      Disp22 (SDQ)                 -3.28944145 [mEh]      -2.06415567 [kcal/mol]      -8.63642732 [kJ/mol]
      Disp22 (T)                   -5.08175552 [mEh]      -3.18884973 [kcal/mol]     -13.34214729 [kJ/mol]
      Est. Disp22 (T)              -5.92324414 [mEh]      -3.71689181 [kcal/mol]     -15.55147535 [kJ/mol]
      Exch-Disp20                   7.85454944 [mEh]       4.92880418 [kcal/mol]      20.62211671 [kJ/mol]

  Total HF                       -117.94955622 [mEh]     -74.01446396 [kcal/mol]    -309.67651720 [kJ/mol]
  Total SAPT0                    -138.00308645 [mEh]     -86.59824416 [kcal/mol]    -362.32705357 [kJ/mol]
  Total SAPT2                    -123.33757938 [mEh]     -77.39549953 [kcal/mol]    -323.82277005 [kJ/mol]
  Total SAPT2+                   -131.96336665 [mEh]     -82.80826277 [kcal/mol]    -346.46977142 [kJ/mol]

  Special recipe for scaled SAPT0 (see Manual):
    Electrostatics sSAPT0        -151.14640009 [mEh]     -94.84579799 [kcal/mol]    -396.83481877 [kJ/mol]
    Exchange sSAPT0                82.08059460 [mEh]      51.50635072 [kcal/mol]     215.50257143 [kJ/mol]
    Induction sSAPT0              -49.40818254 [mEh]     -31.00410263 [kcal/mol]    -129.72116539 [kJ/mol]
    Dispersion sSAPT0             -20.21991468 [mEh]     -12.68818802 [kcal/mol]     -53.08737867 [kJ/mol]
  Total sSAPT0                   -138.69390271 [mEh]     -87.03173791 [kcal/mol]    -364.14079140 [kJ/mol]
  --------------------------------------------------------------------------------------------------------

*** Psi4 exiting successfully. Buy a developer a beer!
