                               Psi4 1.8.2 release

  ==> Input File <==

--------------------------------------------------------------------------
MEMORY 60 GB

molecule dimer {
-1 1
F      0.000000     0.000000     0.000000
--
0 1
O     -0.918718    -1.531255    -2.236425
H     -1.762517    -1.144066    -2.152129
H     -0.451980    -0.957002    -1.606841
O     -0.057855     2.757139     0.823387
H     -0.153772     1.814368     0.834672
H     -0.644771     3.064484     1.455290
O      1.183092     0.237041     2.441939
H      0.725475     0.249679     1.564024
H      0.548909    -0.085551     3.073061
O      2.058890     1.227888    -1.022105
H      2.856425     0.854090    -0.614010
H      1.361978     0.734019    -0.723384
O     -2.424987    -0.275944     1.596124
H     -3.071738    -0.606061     1.013613
H     -1.631010    -0.040803     1.039161
O      1.888808    -2.378152     0.345578
H      1.283712    -1.599836     0.235615
H      1.406826    -3.176557     0.608323

units ang
no_reorient
no_com
symmetry c1
}

set {
basis        aug-cc-pVTZ
scf_type     df
}

energy("sapt2+")
--------------------------------------------------------------------------

  //              Dimer HF             //
    Molecular point group: c1
  Charge       = -1
  Multiplicity = 1
  Basis Set: AUG-CC-PVTZ
    Blend: AUG-CC-PVTZ
  Basis Set: (AUG-CC-PVTZ AUX)
    Blend: AUG-CC-PVTZ-JKFIT
  @DF-RHF Final Energy:  -555.92145405659971
    Total Energy =                       -555.9214540565997140
 Dipole X            :        -29.1142102           27.0256857           -2.0885245
 Dipole Y            :          0.5105013           -1.1328908           -0.6223895
 Dipole Z            :        -38.0713921           38.3905024            0.3191104
 Magnitude           :                                                    2.2025291
  //            Monomer A HF           //
    Molecular point group: c1
  Multiplicity = 1
  Basis Set: AUG-CC-PVTZ
    Blend: AUG-CC-PVTZ
  Basis Set: (AUG-CC-PVTZ AUX)
    Blend: AUG-CC-PVTZ-JKFIT
  @DF-RHF Final Energy:   -99.45116655674509
    Total Energy =                        -99.4511665567451075
  //            Monomer B HF           //
    Molecular point group: c1

    Geometry (in Angstrom), charge = 0, multiplicity = 1:

       Center              X                  Y                   Z               Mass
    ------------   -----------------  -----------------  -----------------  -----------------
      Gh(F)           0.000000000000     0.000000000000     0.000000000000    18.998403162730
         O           -0.918718000000    -1.531255000000    -2.236425000000    15.994914619570
         H           -1.762517000000    -1.144066000000    -2.152129000000     1.007825032230
         H           -0.451980000000    -0.957002000000    -1.606841000000     1.007825032230
         O           -0.057855000000     2.757139000000     0.823387000000    15.994914619570
         H           -0.153772000000     1.814368000000     0.834672000000     1.007825032230
         H           -0.644771000000     3.064484000000     1.455290000000     1.007825032230
         O            1.183092000000     0.237041000000     2.441939000000    15.994914619570
         H            0.725475000000     0.249679000000     1.564024000000     1.007825032230
         H            0.548909000000    -0.085551000000     3.073061000000     1.007825032230
         O            2.058890000000     1.227888000000    -1.022105000000    15.994914619570
         H            2.856425000000     0.854090000000    -0.614010000000     1.007825032230
         H            1.361978000000     0.734019000000    -0.723384000000     1.007825032230
         O           -2.424987000000    -0.275944000000     1.596124000000    15.994914619570
         H           -3.071738000000    -0.606061000000     1.013613000000     1.007825032230
         H           -1.631010000000    -0.040803000000     1.039161000000     1.007825032230
         O            1.888808000000    -2.378152000000     0.345578000000    15.994914619570
         H            1.283712000000    -1.599836000000     0.235615000000     1.007825032230
         H            1.406826000000    -3.176557000000     0.608323000000     1.007825032230

  Charge       = 0
  Multiplicity = 1
  Basis Set: AUG-CC-PVTZ
    Blend: AUG-CC-PVTZ
  Basis Set: (AUG-CC-PVTZ AUX)
    Blend: AUG-CC-PVTZ-JKFIT

    Orbital Energies [Eh]
    ---------------------

    Doubly Occupied:

       1A    -20.611328     2A    -20.596838     3A    -20.596605
       4A    -20.583093     5A    -20.575996     6A    -20.573379
       7A     -1.393171     8A     -1.389303     9A     -1.382271
      10A     -1.374852    11A     -1.373286    12A     -1.352346
      13A     -0.765979    14A     -0.757643    15A     -0.742824
      16A     -0.740241    17A     -0.733912    18A     -0.730667
      19A     -0.626604    20A     -0.620969    21A     -0.607825
      22A     -0.598278    23A     -0.592922    24A     -0.580822
      25A     -0.552417    26A     -0.541192    27A     -0.539118
      28A     -0.524389    29A     -0.519881    30A     -0.516897

  @DF-RHF Final Energy:  -456.32117769826141

   => Energetics <=

    Nuclear Repulsion Energy =            251.6760664877335216
    One-Electron Energy =               -1129.8043861077983365
    Two-Electron Energy =                 421.8071419218033498
    Total Energy =                       -456.3211776982614083
 Dipole X            :        -28.9100944           27.0256857           -1.8844087
 Dipole Y            :          0.4988802           -1.1328908           -0.6340106
 Dipole Z            :        -37.7177166           38.3905024            0.6727858
 Magnitude           :                                                    2.0989536

    SAPT Results
  --------------------------------------------------------------------------------------------------------
    Electrostatics               -181.22137999 [mEh]    -113.71813279 [kcal/mol]    -475.79666761 [kJ/mol]
      Elst10,r                   -180.47855235 [mEh]    -113.25200141 [kcal/mol]    -473.84637391 [kJ/mol]
      Elst12,r                     -0.74282764 [mEh]      -0.46613138 [kcal/mol]      -1.95029371 [kJ/mol]

    Exchange                      115.29340109 [mEh]      72.34770145 [kcal/mol]     302.70278285 [kJ/mol]
      Exch10                       86.17050414 [mEh]      54.07280771 [kcal/mol]     226.24062744 [kJ/mol]
      Exch10(S^2)                  87.10715437 [mEh]      54.66056460 [kcal/mol]     228.69980228 [kJ/mol]
      Exch11(S^2)                   1.84644767 [mEh]       1.15866341 [kcal/mol]       4.84784769 [kJ/mol]
      Exch12(S^2)                  27.27644928 [mEh]      17.11623033 [kcal/mol]      71.61430771 [kJ/mol]

    Induction                     -66.04942847 [mEh]     -41.44664210 [kcal/mol]    -173.41275056 [kJ/mol]
      Ind20,r                     -72.13483203 [mEh]     -45.26529049 [kcal/mol]    -189.38997539 [kJ/mol]
      Ind22                       -16.83320493 [mEh]     -10.56299556 [kcal/mol]     -44.19557344 [kJ/mol]
      Exch-Ind20,r                 23.93550476 [mEh]      15.01975599 [kcal/mol]      62.84265908 [kJ/mol]
      Exch-Ind22                    5.58552984 [mEh]       3.50497289 [kcal/mol]      14.66480657 [kJ/mol]
      delta HF,r (2)               -6.60242611 [mEh]      -4.14308494 [kcal/mol]     -17.33466737 [kJ/mol]

    Dispersion                    -35.00672393 [mEh]     -21.96705091 [kcal/mol]     -91.91014100 [kJ/mol]
      Disp20                      -33.30567398 [mEh]     -20.89962595 [kcal/mol]     -87.44403499 [kJ/mol]
      Disp21                        0.81159126 [mEh]       0.50928120 [kcal/mol]       2.13083255 [kJ/mol]
      Disp22 (SDQ)                 -4.12958998 [mEh]      -2.59135684 [kcal/mol]     -10.84223701 [kJ/mol]
      Disp22 (T)                   -6.21757281 [mEh]      -3.90158584 [kcal/mol]     -16.32423518 [kJ/mol]
      Est. Disp22 (T)              -7.23158129 [mEh]      -4.53788577 [kcal/mol]     -18.98651405 [kJ/mol]
      Exch-Disp20                   8.84853007 [mEh]       5.55253645 [kcal/mol]      23.23181250 [kJ/mol]

  Total HF                       -149.10980159 [mEh]     -93.56781313 [kcal/mol]    -391.48773015 [kJ/mol]
  Total SAPT0                    -173.56694550 [mEh]    -108.91490264 [kcal/mol]    -455.69995264 [kJ/mol]
  Total SAPT2                    -156.43455129 [mEh]     -98.16416296 [kcal/mol]    -410.71885782 [kJ/mol]
  Total SAPT2+                   -166.98413130 [mEh]    -104.78412436 [kcal/mol]    -438.41677633 [kJ/mol]

  Special recipe for scaled SAPT0 (see Manual):
    Electrostatics sSAPT0        -180.47855235 [mEh]    -113.25200141 [kcal/mol]    -473.84637391 [kJ/mol]
    Exchange sSAPT0                86.17050414 [mEh]      54.07280771 [kcal/mol]     226.24062744 [kJ/mol]
    Induction sSAPT0              -55.56560533 [mEh]     -34.86794376 [kcal/mol]    -145.88747669 [kJ/mol]
    Dispersion sSAPT0             -24.73952638 [mEh]     -15.52428718 [kcal/mol]     -64.95361756 [kJ/mol]
  Total sSAPT0                   -174.61317992 [mEh]    -109.57142465 [kcal/mol]    -458.44684072 [kJ/mol]
  --------------------------------------------------------------------------------------------------------

*** Psi4 exiting successfully. Buy a developer a beer!
