                               Psi4 1.8.2 release

  ==> Input File <==

--------------------------------------------------------------------------
MEMORY 60 GB

molecule dimer {
-1 1
F      0.000000     0.000000     0.000000
--
0 1
O      0.267898     1.190999     2.490967
H      0.231648     0.918893     1.585672
H      1.150368     0.873921     2.774655
O      1.989861     1.908491    -0.696683
H      2.519841     1.786306     0.028333
H      1.155472     1.444242    -0.489303
O     -0.232516     0.521451    -2.764163
H     -0.239694     0.176774    -1.911270
H     -0.781563    -0.064568    -3.269363
O      2.028485    -1.193703     1.417716
H      1.489509    -1.545613     2.154059
H      1.368958    -0.882699     0.721738

units ang
no_reorient
no_com
symmetry c1
}

set {
basis        aug-cc-pVTZ
scf_type     df
}

energy("sapt2+")
--------------------------------------------------------------------------

  //              Dimer HF             //
    Molecular point group: c1
  Charge       = -1
  Multiplicity = 1
  Basis Set: AUG-CC-PVTZ
    Blend: AUG-CC-PVTZ
  Basis Set: (AUG-CC-PVTZ AUX)
    Blend: AUG-CC-PVTZ-JKFIT
  @DF-RHF Final Energy:  -403.78435067136979
    Total Energy =                       -403.7843506713697934
 Dipole X            :        -75.6621087           74.3122761           -1.3498326
 Dipole Y            :        -43.4738393           41.8104929           -1.6633464
 Dipole Z            :         -9.5380952            9.7835222            0.2454270
 Magnitude           :                                                    2.1561548
  //            Monomer A HF           //
    Molecular point group: c1
  Multiplicity = 1
  Basis Set: AUG-CC-PVTZ
    Blend: AUG-CC-PVTZ
  Basis Set: (AUG-CC-PVTZ AUX)
    Blend: AUG-CC-PVTZ-JKFIT
  @DF-RHF Final Energy:   -99.45105231381464
    Total Energy =                        -99.4510523138146425
  //            Monomer B HF           //
    Molecular point group: c1

    Geometry (in Angstrom), charge = 0, multiplicity = 1:

       Center              X                  Y                   Z               Mass
    ------------   -----------------  -----------------  -----------------  -----------------
      Gh(F)           0.000000000000     0.000000000000     0.000000000000    18.998403162730
         O            0.267898000000     1.190999000000     2.490967000000    15.994914619570
         H            0.231648000000     0.918893000000     1.585672000000     1.007825032230
         H            1.150368000000     0.873921000000     2.774655000000     1.007825032230
         O            1.989861000000     1.908491000000    -0.696683000000    15.994914619570
         H            2.519841000000     1.786306000000     0.028333000000     1.007825032230
         H            1.155472000000     1.444242000000    -0.489303000000     1.007825032230
         O           -0.232516000000     0.521451000000    -2.764163000000    15.994914619570
         H           -0.239694000000     0.176774000000    -1.911270000000     1.007825032230
         H           -0.781563000000    -0.064568000000    -3.269363000000     1.007825032230
         O            2.028485000000    -1.193703000000     1.417716000000    15.994914619570
         H            1.489509000000    -1.545613000000     2.154059000000     1.007825032230
         H            1.368958000000    -0.882699000000     0.721738000000     1.007825032230

  Charge       = 0
  Multiplicity = 1
  Basis Set: AUG-CC-PVTZ
    Blend: AUG-CC-PVTZ
  Basis Set: (AUG-CC-PVTZ AUX)
    Blend: AUG-CC-PVTZ-JKFIT

    Orbital Energies [Eh]
    ---------------------

    Doubly Occupied:

       1A    -20.604126     2A    -20.584413     3A    -20.575528
       4A    -20.570902     5A     -1.378773     6A     -1.372186
       7A     -1.368692     8A     -1.364989     9A     -0.748802
      10A     -0.736140    11A     -0.731841    12A     -0.725174
      13A     -0.614107    14A     -0.602081    15A     -0.599790
      16A     -0.589278    17A     -0.538930    18A     -0.525396
      19A     -0.524436    20A     -0.516381

  @DF-RHF Final Energy:  -304.22317592136119

   => Energetics <=

    Nuclear Repulsion Energy =            120.3595405377124763
    One-Electron Energy =                -658.6215003372070669
    Two-Electron Energy =                 234.0387838781333869
    Total Energy =                       -304.2231759213611895
 Dipole X            :        -75.0009313           74.3122761           -0.6886551
 Dipole Y            :        -43.2318441           41.8104929           -1.4213512
 Dipole Z            :         -9.3231081            9.7835222            0.4604141
 Magnitude           :                                                    1.6451341

    SAPT Results
  --------------------------------------------------------------------------------------------------------
    Electrostatics               -128.93827311 [mEh]     -80.90998791 [kcal/mol]    -338.52738941 [kJ/mol]
      Elst10,r                   -128.38713421 [mEh]     -80.56414303 [kcal/mol]    -337.08037443 [kJ/mol]
      Elst12,r                     -0.55113890 [mEh]      -0.34584488 [kcal/mol]      -1.44701498 [kJ/mol]

    Exchange                       79.66826339 [mEh]      49.99259004 [kcal/mol]     209.16899672 [kJ/mol]
      Exch10                       59.87588149 [mEh]      37.57268288 [kcal/mol]     157.20410519 [kJ/mol]
      Exch10(S^2)                  60.01534885 [mEh]      37.66019998 [kcal/mol]     157.57027670 [kJ/mol]
      Exch11(S^2)                   0.99860529 [mEh]       0.62663428 [kcal/mol]       2.62183784 [kJ/mol]
      Exch12(S^2)                  18.79377661 [mEh]      11.79327287 [kcal/mol]      49.34305370 [kJ/mol]

    Induction                     -49.57864149 [mEh]     -31.11106723 [kcal/mol]    -130.16870531 [kJ/mol]
      Ind20,r                     -52.60938296 [mEh]     -33.01288622 [kcal/mol]    -138.12591594 [kJ/mol]
      Ind22                       -12.15959148 [mEh]      -7.63025885 [kcal/mol]     -31.92500303 [kJ/mol]
      Exch-Ind20,r                 18.13757928 [mEh]      11.38150283 [kcal/mol]      47.62020783 [kJ/mol]
      Exch-Ind22                    4.19213346 [mEh]       2.63060346 [kcal/mol]      11.00644487 [kJ/mol]
      delta HF,r (2)               -7.13937979 [mEh]      -4.48002845 [kcal/mol]     -18.74443905 [kJ/mol]

    Dispersion                    -23.73917429 [mEh]     -14.89655677 [kcal/mol]     -62.32719351 [kJ/mol]
      Disp20                      -22.43425923 [mEh]     -14.07771020 [kcal/mol]     -58.90113950 [kJ/mol]
      Disp21                        0.35687040 [mEh]       0.22393956 [kcal/mol]       0.93696312 [kJ/mol]
      Disp22 (SDQ)                 -2.73441193 [mEh]      -1.71586939 [kcal/mol]      -7.17919754 [kJ/mol]
      Disp22 (T)                   -4.12890221 [mEh]      -2.59092525 [kcal/mol]     -10.84043125 [kJ/mol]
      Est. Disp22 (T)              -4.86593268 [mEh]      -3.05341885 [kcal/mol]     -12.77550448 [kJ/mol]
      Exch-Disp20                   5.93855914 [mEh]       3.72650212 [kcal/mol]      15.59168489 [kJ/mol]

  Total HF                       -110.12243619 [mEh]     -69.10287199 [kcal/mol]    -289.12641639 [kJ/mol]
  Total SAPT0                    -126.61813628 [mEh]     -79.45408007 [kcal/mol]    -332.43587101 [kJ/mol]
  Total SAPT2                    -115.34435130 [mEh]     -72.37967319 [kcal/mol]    -302.83655261 [kJ/mol]
  Total SAPT2+                   -122.58782550 [mEh]     -76.92502187 [kcal/mol]    -321.85429150 [kJ/mol]

  Special recipe for scaled SAPT0 (see Manual):
    Electrostatics sSAPT0        -128.38713421 [mEh]     -80.56414303 [kcal/mol]    -337.08037443 [kJ/mol]
    Exchange sSAPT0                59.87588149 [mEh]      37.57268288 [kcal/mol]     157.20410519 [kJ/mol]
    Induction sSAPT0              -41.73733752 [mEh]     -26.19057471 [kcal/mol]    -109.58136457 [kJ/mol]
    Dispersion sSAPT0             -16.53700512 [mEh]     -10.37712738 [kcal/mol]     -43.41790096 [kJ/mol]
  Total sSAPT0                   -126.78559536 [mEh]     -79.55916223 [kcal/mol]    -332.87553477 [kJ/mol]
  --------------------------------------------------------------------------------------------------------

*** Psi4 exiting successfully. Buy a developer a beer!
