                               Psi4 1.8.2 release

  ==> Input File <==

--------------------------------------------------------------------------
MEMORY 60 GB

molecule dimer {
-1 1
F      0.000000     0.000000     0.000000
--
0 1
O     -1.321441     0.970764    -2.225812
H     -0.992916     0.400039    -2.920581
H     -0.802183     0.568251    -1.489213
O      2.432565     0.546593    -1.243689
H      1.612306     0.359837    -0.841379
H      3.048573     0.013676    -0.665711
O      1.240147    -0.379821     2.518952
H      0.671240    -0.081223     1.806606
H      1.223288     0.336111     3.147064
O     -2.197900     1.504597     0.957569
H     -1.493668     1.001179     0.522195
H     -2.471022     2.300322     0.431031
O      0.087719    -2.460204    -1.250966
H      0.036346    -1.654206    -0.668350
H      0.899697    -2.835357    -1.025072

units ang
no_reorient
no_com
symmetry c1
}

set {
basis        aug-cc-pVTZ
scf_type     df
}

energy("sapt2+")
--------------------------------------------------------------------------

  //              Dimer HF             //
    Molecular point group: c1
  Charge       = -1
  Multiplicity = 1
  Basis Set: AUG-CC-PVTZ
    Blend: AUG-CC-PVTZ
  Basis Set: (AUG-CC-PVTZ AUX)
    Blend: AUG-CC-PVTZ-JKFIT
  @DF-RHF Final Energy:  -479.86382630513521
    Total Energy =                       -479.8638263051352055
 Dipole X            :         -6.1618262            6.9171176            0.7552914
 Dipole Y            :         -3.4688665            3.5225648            0.0536983
 Dipole Z            :         22.7279194          -22.0247164            0.7032030
 Magnitude           :                                                    1.0333650
  //            Monomer A HF           //
    Molecular point group: c1
  Multiplicity = 1
  Basis Set: AUG-CC-PVTZ
    Blend: AUG-CC-PVTZ
  Basis Set: (AUG-CC-PVTZ AUX)
    Blend: AUG-CC-PVTZ-JKFIT
  @DF-RHF Final Energy:   -99.45111197511903
    Total Energy =                        -99.4511119751190336
  //            Monomer B HF           //
    Molecular point group: c1

    Geometry (in Angstrom), charge = 0, multiplicity = 1:

       Center              X                  Y                   Z               Mass
    ------------   -----------------  -----------------  -----------------  -----------------
      Gh(F)           0.000000000000     0.000000000000     0.000000000000    18.998403162730
         O           -1.321441000000     0.970764000000    -2.225812000000    15.994914619570
         H           -0.992916000000     0.400039000000    -2.920581000000     1.007825032230
         H           -0.802183000000     0.568251000000    -1.489213000000     1.007825032230
         O            2.432565000000     0.546593000000    -1.243689000000    15.994914619570
         H            1.612306000000     0.359837000000    -0.841379000000     1.007825032230
         H            3.048573000000     0.013676000000    -0.665711000000     1.007825032230
         O            1.240147000000    -0.379821000000     2.518952000000    15.994914619570
         H            0.671240000000    -0.081223000000     1.806606000000     1.007825032230
         H            1.223288000000     0.336111000000     3.147064000000     1.007825032230
         O           -2.197900000000     1.504597000000     0.957569000000    15.994914619570
         H           -1.493668000000     1.001179000000     0.522195000000     1.007825032230
         H           -2.471022000000     2.300322000000     0.431031000000     1.007825032230
         O            0.087719000000    -2.460204000000    -1.250966000000    15.994914619570
         H            0.036346000000    -1.654206000000    -0.668350000000     1.007825032230
         H            0.899697000000    -2.835357000000    -1.025072000000     1.007825032230

  Charge       = 0
  Multiplicity = 1
  Basis Set: AUG-CC-PVTZ
    Blend: AUG-CC-PVTZ
  Basis Set: (AUG-CC-PVTZ AUX)
    Blend: AUG-CC-PVTZ-JKFIT

    Orbital Energies [Eh]
    ---------------------

    Doubly Occupied:

       1A    -20.593004     2A    -20.592071     3A    -20.591725
       4A    -20.591680     5A    -20.581094     6A     -1.379654
       7A     -1.379058     8A     -1.375147     9A     -1.370580
      10A     -1.350400    11A     -0.744530    12A     -0.740844
      13A     -0.734650    14A     -0.728609    15A     -0.712977
      16A     -0.615953    17A     -0.613535    18A     -0.610428
      19A     -0.608118    20A     -0.578595    21A     -0.537349
      22A     -0.535180    23A     -0.530580    24A     -0.529632
      25A     -0.518690

  @DF-RHF Final Energy:  -380.27822791716420

   => Energetics <=

    Nuclear Repulsion Energy =            173.4198693854906139
    One-Electron Energy =                -869.1080196537133133
    Two-Electron Energy =                 315.4099223510584693
    Total Energy =                       -380.2782279171642017
 Dipole X            :         -6.1217155            6.9171176            0.7954021
 Dipole Y            :         -3.4843004            3.5225648            0.0382644
 Dipole Z            :         22.4404858          -22.0247164            0.4157694
 Magnitude           :                                                    0.8983278

    SAPT Results
  --------------------------------------------------------------------------------------------------------
    Electrostatics               -160.90699206 [mEh]    -100.97066192 [kcal/mol]    -422.46124946 [kJ/mol]
      Elst10,r                   -160.09758505 [mEh]    -100.46275135 [kcal/mol]    -420.33615165 [kJ/mol]
      Elst12,r                     -0.80940701 [mEh]      -0.50791057 [kcal/mol]      -2.12509781 [kJ/mol]

    Exchange                      101.65446984 [mEh]      63.78914287 [kcal/mol]     266.89377378 [kJ/mol]
      Exch10                       76.38644157 [mEh]      47.93321576 [kcal/mol]     200.55257472 [kJ/mol]
      Exch10(S^2)                  77.19418828 [mEh]      48.44008446 [kcal/mol]     202.67331339 [kJ/mol]
      Exch11(S^2)                   1.46567594 [mEh]       0.91972554 [kcal/mol]       3.84813166 [kJ/mol]
      Exch12(S^2)                  23.80235232 [mEh]      14.93620158 [kcal/mol]      62.49306740 [kJ/mol]

    Induction                     -60.65430836 [mEh]     -38.06115312 [kcal/mol]    -159.24786465 [kJ/mol]
      Ind20,r                     -64.98982204 [mEh]     -40.78172903 [kcal/mol]    -170.63075426 [kJ/mol]
      Ind22                       -14.63160043 [mEh]      -9.18146789 [kcal/mol]     -38.41526164 [kJ/mol]
      Exch-Ind20,r                 21.10966083 [mEh]      13.24651216 [kcal/mol]      55.42340688 [kJ/mol]
      Exch-Ind22                    4.75256145 [mEh]       2.98227733 [kcal/mol]      12.47784836 [kJ/mol]
      delta HF,r (2)               -6.89510816 [mEh]      -4.32674570 [kcal/mol]     -18.10310399 [kJ/mol]

    Dispersion                    -30.74355169 [mEh]     -19.29186994 [kcal/mol]     -80.71718384 [kJ/mol]
      Disp20                      -29.14572157 [mEh]     -18.28921640 [kcal/mol]     -76.52208144 [kJ/mol]
      Disp21                        0.48243303 [mEh]       0.30273130 [kcal/mol]       1.26662775 [kJ/mol]
      Disp22 (SDQ)                 -3.47278379 [mEh]      -2.17920473 [kcal/mol]      -9.11779258 [kJ/mol]
      Disp22 (T)                   -5.38698687 [mEh]      -3.38038530 [kcal/mol]     -14.14353208 [kJ/mol]
      Est. Disp22 (T)              -6.29985307 [mEh]      -3.95321749 [kcal/mol]     -16.54026196 [kJ/mol]
      Exch-Disp20                   7.69237371 [mEh]       4.82703738 [kcal/mol]      20.19632439 [kJ/mol]

  Total HF                       -134.48641285 [mEh]     -84.39149816 [kcal/mol]    -353.09402830 [kJ/mol]
  Total SAPT0                    -155.93976071 [mEh]     -97.85367719 [kcal/mol]    -409.41978535 [kJ/mol]
  Total SAPT2                    -141.36017845 [mEh]     -88.70485119 [kcal/mol]    -371.14109738 [kJ/mol]
  Total SAPT2+                   -150.65038227 [mEh]     -94.53454211 [kcal/mol]    -395.53252417 [kJ/mol]

  Special recipe for scaled SAPT0 (see Manual):
    Electrostatics sSAPT0        -160.09758505 [mEh]    -100.46275135 [kcal/mol]    -420.33615165 [kJ/mol]
    Exchange sSAPT0                76.38644157 [mEh]      47.93321576 [kcal/mol]     200.55257472 [kJ/mol]
    Induction sSAPT0              -51.43102313 [mEh]     -32.27345426 [kcal/mol]    -135.03213263 [kJ/mol]
    Dispersion sSAPT0             -21.69230495 [mEh]     -13.61212686 [kcal/mol]     -56.95313879 [kJ/mol]
  Total sSAPT0                   -156.83447156 [mEh]     -98.41511672 [kcal/mol]    -411.76884835 [kJ/mol]
  --------------------------------------------------------------------------------------------------------

*** Psi4 exiting successfully. Buy a developer a beer!
