                               Psi4 1.8.2 release

  ==> Input File <==

--------------------------------------------------------------------------
MEMORY 60 GB

molecule dimer {
-1 1
F      0.000000     0.000000     0.000000
--
0 1
O     -0.952365     1.069811     2.420031
H     -1.809142     1.433385     2.206942
H     -0.677213     0.589182     1.599917
O     -2.646160    -0.758425    -0.155469
H     -1.673478    -0.567133     0.114755
H     -2.882933    -1.589745     0.287001
O     -0.629425     1.382429    -2.327001
H     -0.579909     1.003938    -1.422959
H     -1.177112     2.140621    -2.269006
O      2.229730     1.512680     0.749307
H      1.907904     1.873311     1.582375
H      1.496351     0.913088     0.515515
O      0.351042    -2.383392     1.594232
H     -0.034028    -1.661486     0.966528
H      1.180438    -2.089714     1.976787

units ang
no_reorient
no_com
symmetry c1
}

set {
basis        aug-cc-pVTZ
scf_type     df
}

energy("sapt2+")
--------------------------------------------------------------------------

  //              Dimer HF             //
    Molecular point group: c1
  Charge       = -1
  Multiplicity = 1
  Basis Set: AUG-CC-PVTZ
    Blend: AUG-CC-PVTZ
  Basis Set: (AUG-CC-PVTZ AUX)
    Blend: AUG-CC-PVTZ-JKFIT
  @DF-RHF Final Energy:  -479.85577711335532
    Total Energy =                       -479.8557771133553160
 Dipole X            :         32.5632445          -32.9313993           -0.3681547
 Dipole Y            :        -16.1829263           16.3088486            0.1259222
 Dipole Z            :        -44.6889144           44.9880579            0.2991436
 Magnitude           :                                                    0.4907965
  //            Monomer A HF           //
    Molecular point group: c1
  Multiplicity = 1
  Basis Set: AUG-CC-PVTZ
    Blend: AUG-CC-PVTZ
  Basis Set: (AUG-CC-PVTZ AUX)
    Blend: AUG-CC-PVTZ-JKFIT
  @DF-RHF Final Energy:   -99.45111273648467
    Total Energy =                        -99.4511127364846601
  //            Monomer B HF           //
    Molecular point group: c1

    Geometry (in Angstrom), charge = 0, multiplicity = 1:

       Center              X                  Y                   Z               Mass
    ------------   -----------------  -----------------  -----------------  -----------------
      Gh(F)           0.000000000000     0.000000000000     0.000000000000    18.998403162730
         O           -0.952365000000     1.069811000000     2.420031000000    15.994914619570
         H           -1.809142000000     1.433385000000     2.206942000000     1.007825032230
         H           -0.677213000000     0.589182000000     1.599917000000     1.007825032230
         O           -2.646160000000    -0.758425000000    -0.155469000000    15.994914619570
         H           -1.673478000000    -0.567133000000     0.114755000000     1.007825032230
         H           -2.882933000000    -1.589745000000     0.287001000000     1.007825032230
         O           -0.629425000000     1.382429000000    -2.327001000000    15.994914619570
         H           -0.579909000000     1.003938000000    -1.422959000000     1.007825032230
         H           -1.177112000000     2.140621000000    -2.269006000000     1.007825032230
         O            2.229730000000     1.512680000000     0.749307000000    15.994914619570
         H            1.907904000000     1.873311000000     1.582375000000     1.007825032230
         H            1.496351000000     0.913088000000     0.515515000000     1.007825032230
         O            0.351042000000    -2.383392000000     1.594232000000    15.994914619570
         H           -0.034028000000    -1.661486000000     0.966528000000     1.007825032230
         H            1.180438000000    -2.089714000000     1.976787000000     1.007825032230

  Charge       = 0
  Multiplicity = 1
  Basis Set: AUG-CC-PVTZ
    Blend: AUG-CC-PVTZ
  Basis Set: (AUG-CC-PVTZ AUX)
    Blend: AUG-CC-PVTZ-JKFIT

    Orbital Energies [Eh]
    ---------------------

    Doubly Occupied:

       1A    -20.609202     2A    -20.605658     3A    -20.598710
       4A    -20.586152     5A    -20.578449     6A     -1.382297
       7A     -1.367933     8A     -1.365026     9A     -1.363005
      10A     -1.359362    11A     -0.750425    12A     -0.738234
      13A     -0.734889    14A     -0.728647    15A     -0.718643
      16A     -0.619368    17A     -0.606892    18A     -0.604650
      19A     -0.591610    20A     -0.591235    21A     -0.546235
      22A     -0.539694    23A     -0.531979    24A     -0.525342
      25A     -0.520040

  @DF-RHF Final Energy:  -380.26635297742183

   => Energetics <=

    Nuclear Repulsion Energy =            175.5694277711088489
    One-Electron Energy =                -873.3442054449934631
    Two-Electron Energy =                 317.5084246964627823
    Total Energy =                       -380.2663529774218318
 Dipole X            :         32.1853644          -32.9313993           -0.7460348
 Dipole Y            :        -16.0567190           16.3088486            0.2521295
 Dipole Z            :        -44.2529520           44.9880579            0.7351059
 Magnitude           :                                                    1.0772734

    SAPT Results
  --------------------------------------------------------------------------------------------------------
    Electrostatics               -163.18879959 [mEh]    -102.40251776 [kcal/mol]    -428.45213430 [kJ/mol]
      Elst10,r                   -162.41707363 [mEh]    -101.91825241 [kcal/mol]    -426.42596806 [kJ/mol]
      Elst12,r                     -0.77172596 [mEh]      -0.48426535 [kcal/mol]      -2.02616624 [kJ/mol]

    Exchange                      106.75938396 [mEh]      66.99252485 [kcal/mol]     280.29672398 [kJ/mol]
      Exch10                       80.17552910 [mEh]      50.31090407 [kcal/mol]     210.50082264 [kJ/mol]
      Exch10(S^2)                  80.97361712 [mEh]      50.81171187 [kcal/mol]     212.59620245 [kJ/mol]
      Exch11(S^2)                   1.84489225 [mEh]       1.15768736 [kcal/mol]       4.84376393 [kJ/mol]
      Exch12(S^2)                  24.73896262 [mEh]      15.52393342 [kcal/mol]      64.95213741 [kJ/mol]

    Induction                     -66.47119579 [mEh]     -41.71130509 [kcal/mol]    -174.52010050 [kJ/mol]
      Ind20,r                     -69.24130524 [mEh]     -43.44957502 [kcal/mol]    -181.79302187 [kJ/mol]
      Ind22                       -15.11308525 [mEh]      -9.48360417 [kcal/mol]     -39.67939986 [kJ/mol]
      Exch-Ind20,r                 21.58707672 [mEh]      13.54609515 [kcal/mol]      56.67686211 [kJ/mol]
      Exch-Ind22                    4.71174438 [mEh]       2.95666424 [kcal/mol]      12.37068316 [kJ/mol]
      delta HF,r (2)               -8.41562639 [mEh]      -5.28088529 [kcal/mol]     -22.09522404 [kJ/mol]

    Dispersion                    -31.84040085 [mEh]     -19.98015318 [kcal/mol]     -83.59696091 [kJ/mol]
      Disp20                      -30.30491602 [mEh]     -19.01662190 [kcal/mol]     -79.56554604 [kJ/mol]
      Disp21                        0.68332988 [mEh]       0.42879597 [kcal/mol]       1.79408235 [kJ/mol]
      Disp22 (SDQ)                 -3.60850186 [mEh]      -2.26436911 [kcal/mol]      -9.47412034 [kJ/mol]
      Disp22 (T)                   -5.71319599 [mEh]      -3.58508461 [kcal/mol]     -14.99999401 [kJ/mol]
      Est. Disp22 (T)              -6.63374705 [mEh]      -4.16273912 [kcal/mol]     -17.41690047 [kJ/mol]
      Exch-Disp20                   8.02343420 [mEh]       5.03478097 [kcal/mol]      21.06552359 [kJ/mol]

  Total HF                       -138.31139945 [mEh]     -86.79171349 [kcal/mol]    -363.13652922 [kJ/mol]
  Total SAPT0                    -160.59288126 [mEh]    -100.77355441 [kcal/mol]    -421.63655167 [kJ/mol]
  Total SAPT2                    -145.18209324 [mEh]     -91.10313893 [kcal/mol]    -381.17553328 [kJ/mol]
  Total SAPT2+                   -154.74101227 [mEh]     -97.10145118 [kcal/mol]    -406.27247174 [kJ/mol]

  Special recipe for scaled SAPT0 (see Manual):
    Electrostatics sSAPT0        -162.41707363 [mEh]    -101.91825241 [kcal/mol]    -426.42596806 [kJ/mol]
    Exchange sSAPT0                80.17552910 [mEh]      50.31090407 [kcal/mol]     210.50082264 [kJ/mol]
    Induction sSAPT0              -56.70188076 [mEh]     -35.58096736 [kcal/mol]    -148.87076743 [kJ/mol]
    Dispersion sSAPT0             -22.51639170 [mEh]     -14.12924911 [kcal/mol]     -59.11677828 [kJ/mol]
  Total sSAPT0                   -161.45981700 [mEh]    -101.31756480 [kcal/mol]    -423.91269113 [kJ/mol]
  --------------------------------------------------------------------------------------------------------

*** Psi4 exiting successfully. Buy a developer a beer!
