                               Psi4 1.8.2 release

  ==> Input File <==

--------------------------------------------------------------------------
MEMORY 60 GB

molecule dimer {
-1 1
F      0.000000     0.000000     0.000000
--
0 1
O     -1.487872    -0.217420    -2.363753
H     -1.846266    -1.101990    -2.303354
H     -0.867098    -0.126949    -1.620883
O     -1.868663    -2.007774     0.548444
H     -1.271309    -1.335933     0.538696
H     -2.725726    -1.478875     0.632794
O     -2.203007     1.637413     0.887644
H     -1.407326     1.184148     0.615864
H     -1.872138     2.526221     0.987551
O      1.801115     0.959619    -2.091262
H      2.347007     1.699909    -1.793638
H      1.430991     0.615917    -1.275322
O      1.566564    -2.169919     0.460736
H      1.039338    -1.344244     0.290975
H      1.396974    -2.309900     1.415673

units ang
no_reorient
no_com
symmetry c1
}

set {
basis        aug-cc-pVTZ
scf_type     df
}

energy("sapt2+")
--------------------------------------------------------------------------

  //              Dimer HF             //
    Molecular point group: c1
  Charge       = -1
  Multiplicity = 1
  Basis Set: AUG-CC-PVTZ
    Blend: AUG-CC-PVTZ
  Basis Set: (AUG-CC-PVTZ AUX)
    Blend: AUG-CC-PVTZ-JKFIT
  @DF-RHF Final Energy:  -479.85679213633091
    Total Energy =                       -479.8567921363309097
 Dipole X            :         40.8695300          -40.2709273            0.5986027
 Dipole Y            :         31.8384598          -30.3420927            1.4963671
 Dipole Z            :         45.2831470          -43.4205622            1.8625848
 Magnitude           :                                                    2.4630594
  //            Monomer A HF           //
    Molecular point group: c1
  Multiplicity = 1
  Basis Set: AUG-CC-PVTZ
    Blend: AUG-CC-PVTZ
  Basis Set: (AUG-CC-PVTZ AUX)
    Blend: AUG-CC-PVTZ-JKFIT
  @DF-RHF Final Energy:   -99.45111005763286
    Total Energy =                        -99.4511100576328602
  //            Monomer B HF           //
    Molecular point group: c1

    Geometry (in Angstrom), charge = 0, multiplicity = 1:

       Center              X                  Y                   Z               Mass
    ------------   -----------------  -----------------  -----------------  -----------------
      Gh(F)           0.000000000000     0.000000000000     0.000000000000    18.998403162730
         O           -1.487872000000    -0.217420000000    -2.363753000000    15.994914619570
         H           -1.846266000000    -1.101990000000    -2.303354000000     1.007825032230
         H           -0.867098000000    -0.126949000000    -1.620883000000     1.007825032230
         O           -1.868663000000    -2.007774000000     0.548444000000    15.994914619570
         H           -1.271309000000    -1.335933000000     0.538696000000     1.007825032230
         H           -2.725726000000    -1.478875000000     0.632794000000     1.007825032230
         O           -2.203007000000     1.637413000000     0.887644000000    15.994914619570
         H           -1.407326000000     1.184148000000     0.615864000000     1.007825032230
         H           -1.872138000000     2.526221000000     0.987551000000     1.007825032230
         O            1.801115000000     0.959619000000    -2.091262000000    15.994914619570
         H            2.347007000000     1.699909000000    -1.793638000000     1.007825032230
         H            1.430991000000     0.615917000000    -1.275322000000     1.007825032230
         O            1.566564000000    -2.169919000000     0.460736000000    15.994914619570
         H            1.039338000000    -1.344244000000     0.290975000000     1.007825032230
         H            1.396974000000    -2.309900000000     1.415673000000     1.007825032230

  Charge       = 0
  Multiplicity = 1
  Basis Set: AUG-CC-PVTZ
    Blend: AUG-CC-PVTZ
  Basis Set: (AUG-CC-PVTZ AUX)
    Blend: AUG-CC-PVTZ-JKFIT

    Orbital Energies [Eh]
    ---------------------

    Doubly Occupied:

       1A    -20.594958     2A    -20.593929     3A    -20.586798
       4A    -20.584999     5A    -20.570055     6A     -1.384869
       7A     -1.381165     8A     -1.367503     9A     -1.360573
      10A     -1.351157    11A     -0.740320    12A     -0.733178
      13A     -0.730455    14A     -0.717596    15A     -0.713991
      16A     -0.619992    17A     -0.611213    18A     -0.604024
      19A     -0.600189    20A     -0.583273    21A     -0.538361
      22A     -0.530749    23A     -0.528051    24A     -0.525221
      25A     -0.510040

  @DF-RHF Final Energy:  -380.27536744890801

   => Energetics <=

    Nuclear Repulsion Energy =            177.1617719390906984
    One-Electron Energy =                -876.7489578204612144
    Two-Electron Energy =                 319.3118184324624735
    Total Energy =                       -380.2753674489080140
 Dipole X            :         40.6367089          -40.2709273            0.3657815
 Dipole Y            :         31.5281330          -30.3420927            1.1860403
 Dipole Z            :         45.0403234          -43.4205622            1.6197612
 Magnitude           :                                                    2.0406161

    SAPT Results
  --------------------------------------------------------------------------------------------------------
    Electrostatics               -153.87012210 [mEh]     -96.55495935 [kcal/mol]    -403.98594991 [kJ/mol]
      Elst10,r                   -153.38478987 [mEh]     -96.25040878 [kcal/mol]    -402.71171033 [kJ/mol]
      Elst12,r                     -0.48533223 [mEh]      -0.30455057 [kcal/mol]      -1.27423958 [kJ/mol]

    Exchange                       94.04556382 [mEh]      59.01448226 [kcal/mol]     246.91659378 [kJ/mol]
      Exch10                       70.26557933 [mEh]      44.09231671 [kcal/mol]     184.48225312 [kJ/mol]
      Exch10(S^2)                  70.87142775 [mEh]      44.47249233 [kcal/mol]     186.07290792 [kJ/mol]
      Exch11(S^2)                   1.33162752 [mEh]       0.83560889 [kcal/mol]       3.49618758 [kJ/mol]
      Exch12(S^2)                  22.44835696 [mEh]      14.08655666 [kcal/mol]      58.93815308 [kJ/mol]

    Induction                     -56.57062528 [mEh]     -35.49860330 [kcal/mol]    -148.52615621 [kJ/mol]
      Ind20,r                     -60.63319582 [mEh]     -38.04790480 [kcal/mol]    -159.19243369 [kJ/mol]
      Ind22                       -13.98564371 [mEh]      -8.77612393 [kcal/mol]     -36.71930251 [kJ/mol]
      Exch-Ind20,r                 19.98803749 [mEh]      12.54268289 [kcal/mol]      52.47858520 [kJ/mol]
      Exch-Ind22                    4.61043768 [mEh]       2.89309332 [kcal/mol]      12.10470247 [kJ/mol]
      delta HF,r (2)               -6.55026092 [mEh]      -4.11035078 [kcal/mol]     -17.19770767 [kJ/mol]

    Dispersion                    -28.98766877 [mEh]     -18.19003678 [kcal/mol]     -76.10711388 [kJ/mol]
      Disp20                      -27.35294394 [mEh]     -17.16423146 [kcal/mol]     -71.81514443 [kJ/mol]
      Disp21                        0.46292014 [mEh]       0.29048678 [kcal/mol]       1.21539667 [kJ/mol]
      Disp22 (SDQ)                 -3.37134714 [mEh]      -2.11555227 [kcal/mol]      -8.85147070 [kJ/mol]
      Disp22 (T)                   -5.08195140 [mEh]      -3.18897265 [kcal/mol]     -13.34266157 [kJ/mol]
      Est. Disp22 (T)              -5.96049867 [mEh]      -3.74026938 [kcal/mol]     -15.64928709 [kJ/mol]
      Exch-Disp20                   7.23420083 [mEh]       4.53952956 [kcal/mol]      18.99339167 [kJ/mol]

  Total HF                       -130.31462979 [mEh]     -81.77366477 [kcal/mol]    -342.14101338 [kJ/mol]
  Total SAPT0                    -150.43337290 [mEh]     -94.39836667 [kcal/mol]    -394.96276613 [kJ/mol]
  Total SAPT2                    -136.51392667 [mEh]     -85.66378229 [kcal/mol]    -358.41726510 [kJ/mol]
  Total SAPT2+                   -145.38285233 [mEh]     -91.22911716 [kcal/mol]    -381.70262622 [kJ/mol]

  Special recipe for scaled SAPT0 (see Manual):
    Electrostatics sSAPT0        -153.38478987 [mEh]     -96.25040878 [kcal/mol]    -402.71171033 [kJ/mol]
    Exchange sSAPT0                70.26557933 [mEh]      44.09231671 [kcal/mol]     184.48225312 [kJ/mol]
    Induction sSAPT0              -47.70365630 [mEh]     -29.93449626 [kcal/mol]    -125.24593237 [kJ/mol]
    Dispersion sSAPT0             -20.30268758 [mEh]     -12.74012880 [kcal/mol]     -53.30469889 [kJ/mol]
  Total sSAPT0                   -151.12555442 [mEh]     -94.83271713 [kcal/mol]    -396.78008847 [kJ/mol]
  --------------------------------------------------------------------------------------------------------

*** Psi4 exiting successfully. Buy a developer a beer!
