                               Psi4 1.8.2 release

  ==> Input File <==

--------------------------------------------------------------------------
MEMORY 60 GB

molecule dimer {
-1 1
F      0.000000     0.000000     0.000000
--
0 1
O     -1.040126     1.780657     2.166816
H     -0.541147     1.178286     1.649910
H     -1.724440     1.333132     2.698770
O     -0.523250    -1.125202    -2.408440
H     -0.564996    -0.798878    -1.494910
H     -0.402714    -0.362971    -3.050029
O      2.079503    -1.735904    -1.231855
H      2.655438    -2.096123    -0.576863
H      1.401799    -1.195079    -0.875190
O      1.091125     2.218432    -1.098981
H      0.562088     1.505052    -0.640283
H      0.885587     2.085152    -2.049570
O     -0.959463    -2.533583     0.907767
H     -1.720276    -2.363137     1.512543
H     -0.469011    -1.671916     0.866917
O     -2.444628     1.453668    -0.702895
H     -1.752241     0.854757    -0.578124
H     -2.784304     1.603587     0.183625

units ang
no_reorient
no_com
symmetry c1
}

set {
basis        aug-cc-pVTZ
scf_type     df
}

energy("sapt2+")
--------------------------------------------------------------------------

  //              Dimer HF             //
    Molecular point group: c1
  Charge       = -1
  Multiplicity = 1
  Basis Set: AUG-CC-PVTZ
    Blend: AUG-CC-PVTZ
  Basis Set: (AUG-CC-PVTZ AUX)
    Blend: AUG-CC-PVTZ-JKFIT
  @DF-RHF Final Energy:  -555.91283842675398
    Total Energy =                       -555.9128384267539786
 Dipole X            :         35.2110167          -35.5815190           -0.3705023
 Dipole Y            :         -1.1202306            1.0136604           -0.1065702
 Dipole Z            :         42.1403344          -40.2396543            1.9006801
 Magnitude           :                                                    1.9393850
  //            Monomer A HF           //
    Molecular point group: c1
  Multiplicity = 1
  Basis Set: AUG-CC-PVTZ
    Blend: AUG-CC-PVTZ
  Basis Set: (AUG-CC-PVTZ AUX)
    Blend: AUG-CC-PVTZ-JKFIT
  @DF-RHF Final Energy:   -99.45115388185023
    Total Energy =                        -99.4511538818502459
  //            Monomer B HF           //
    Molecular point group: c1

    Geometry (in Angstrom), charge = 0, multiplicity = 1:

       Center              X                  Y                   Z               Mass
    ------------   -----------------  -----------------  -----------------  -----------------
      Gh(F)           0.000000000000     0.000000000000     0.000000000000    18.998403162730
         O           -1.040126000000     1.780657000000     2.166816000000    15.994914619570
         H           -0.541147000000     1.178286000000     1.649910000000     1.007825032230
         H           -1.724440000000     1.333132000000     2.698770000000     1.007825032230
         O           -0.523250000000    -1.125202000000    -2.408440000000    15.994914619570
         H           -0.564996000000    -0.798878000000    -1.494910000000     1.007825032230
         H           -0.402714000000    -0.362971000000    -3.050029000000     1.007825032230
         O            2.079503000000    -1.735904000000    -1.231855000000    15.994914619570
         H            2.655438000000    -2.096123000000    -0.576863000000     1.007825032230
         H            1.401799000000    -1.195079000000    -0.875190000000     1.007825032230
         O            1.091125000000     2.218432000000    -1.098981000000    15.994914619570
         H            0.562088000000     1.505052000000    -0.640283000000     1.007825032230
         H            0.885587000000     2.085152000000    -2.049570000000     1.007825032230
         O           -0.959463000000    -2.533583000000     0.907767000000    15.994914619570
         H           -1.720276000000    -2.363137000000     1.512543000000     1.007825032230
         H           -0.469011000000    -1.671916000000     0.866917000000     1.007825032230
         O           -2.444628000000     1.453668000000    -0.702895000000    15.994914619570
         H           -1.752241000000     0.854757000000    -0.578124000000     1.007825032230
         H           -2.784304000000     1.603587000000     0.183625000000     1.007825032230

  Charge       = 0
  Multiplicity = 1
  Basis Set: AUG-CC-PVTZ
    Blend: AUG-CC-PVTZ
  Basis Set: (AUG-CC-PVTZ AUX)
    Blend: AUG-CC-PVTZ-JKFIT

    Orbital Energies [Eh]
    ---------------------

    Doubly Occupied:

       1A    -20.605014     2A    -20.602577     3A    -20.592164
       4A    -20.587604     5A    -20.583516     6A    -20.563035
       7A     -1.389496     8A     -1.381359     9A     -1.369239
      10A     -1.360887    11A     -1.355951    12A     -1.352178
      13A     -0.772726    14A     -0.753190    15A     -0.746449
      16A     -0.733794    17A     -0.726525    18A     -0.717012
      19A     -0.612585    20A     -0.607697    21A     -0.605060
      22A     -0.599330    23A     -0.582672    24A     -0.571557
      25A     -0.547801    26A     -0.538776    27A     -0.530510
      28A     -0.524916    29A     -0.522572    30A     -0.508791

  @DF-RHF Final Energy:  -456.31846116385304

   => Energetics <=

    Nuclear Repulsion Energy =            252.0248106407419471
    One-Electron Energy =               -1130.7965774750477976
    Two-Electron Energy =                 422.4533056704527780
    Total Energy =                       -456.3184611638530441
 Dipole X            :         34.9855024          -35.5815190           -0.5960166
 Dipole Y            :         -1.0780378            1.0136604           -0.0643774
 Dipole Z            :         41.7359609          -40.2396543            1.4963067
 Magnitude           :                                                    1.6119286

    SAPT Results
  --------------------------------------------------------------------------------------------------------
    Electrostatics               -170.39180015 [mEh]    -106.92246885 [kcal/mol]    -447.36360966 [kJ/mol]
      Elst10,r                   -169.66298042 [mEh]    -106.46512756 [kcal/mol]    -445.45009372 [kJ/mol]
      Elst12,r                     -0.72881973 [mEh]      -0.45734129 [kcal/mol]      -1.91351594 [kJ/mol]

    Exchange                      105.13485861 [mEh]      65.97311980 [kcal/mol]     276.03153325 [kJ/mol]
      Exch10                       77.80116585 [mEh]      48.82096864 [kcal/mol]     204.26693280 [kJ/mol]
      Exch10(S^2)                  78.61832590 [mEh]      49.33374432 [kcal/mol]     206.41238621 [kJ/mol]
      Exch11(S^2)                   1.62010244 [mEh]       1.01662963 [kcal/mol]       4.25357837 [kJ/mol]
      Exch12(S^2)                  25.71359032 [mEh]      16.13552153 [kcal/mol]      67.51102208 [kJ/mol]

    Induction                     -62.13401225 [mEh]     -38.98968133 [kcal/mol]    -163.13282668 [kJ/mol]
      Ind20,r                     -67.12225326 [mEh]     -42.11984982 [kcal/mol]    -176.22945166 [kJ/mol]
      Ind22                       -16.00339046 [mEh]     -10.04227913 [kcal/mol]     -42.01689587 [kJ/mol]
      Exch-Ind20,r                 21.93990051 [mEh]      13.76749542 [kcal/mol]      57.60320085 [kJ/mol]
      Exch-Ind22                    5.23094469 [mEh]       3.28246735 [kcal/mol]      13.73384340 [kJ/mol]
      delta HF,r (2)               -6.17921373 [mEh]      -3.87751516 [kcal/mol]     -16.22352341 [kJ/mol]

    Dispersion                    -33.10805835 [mEh]     -20.77562027 [kcal/mol]     -86.92519522 [kJ/mol]
      Disp20                      -31.17447708 [mEh]     -19.56227970 [kcal/mol]     -81.84857829 [kJ/mol]
      Disp21                        0.67637186 [mEh]       0.42442975 [kcal/mol]       1.77581407 [kJ/mol]
      Disp22 (SDQ)                 -3.99553255 [mEh]      -2.50723453 [kcal/mol]     -10.49026926 [kJ/mol]
      Disp22 (T)                   -5.89057366 [mEh]      -3.69639078 [kcal/mol]     -15.46569902 [kJ/mol]
      Est. Disp22 (T)              -6.87819650 [mEh]      -4.31613347 [kcal/mol]     -18.05870244 [kJ/mol]
      Exch-Disp20                   8.26377592 [mEh]       5.18559768 [kcal/mol]      21.69654069 [kJ/mol]

  Total HF                       -143.22338105 [mEh]     -89.87402848 [kcal/mol]    -376.03293514 [kJ/mol]
  Total SAPT0                    -166.13408220 [mEh]    -104.25071050 [kcal/mol]    -436.18497273 [kJ/mol]
  Total SAPT2                    -150.30165494 [mEh]     -94.31571240 [kcal/mol]    -394.61694068 [kJ/mol]
  Total SAPT2+                   -160.49901214 [mEh]    -100.71465065 [kcal/mol]    -421.39009831 [kJ/mol]

  Special recipe for scaled SAPT0 (see Manual):
    Electrostatics sSAPT0        -169.66298042 [mEh]    -106.46512756 [kcal/mol]    -445.45009372 [kJ/mol]
    Exchange sSAPT0                77.80116585 [mEh]      48.82096864 [kcal/mol]     204.26693280 [kJ/mol]
    Induction sSAPT0              -52.03861121 [mEh]     -32.65472154 [kcal/mol]    -136.62735491 [kJ/mol]
    Dispersion sSAPT0             -23.16571352 [mEh]     -14.53670470 [kcal/mol]     -60.82157246 [kJ/mol]
  Total sSAPT0                   -167.06613930 [mEh]    -104.83558516 [kcal/mol]    -438.63208829 [kJ/mol]
  --------------------------------------------------------------------------------------------------------

*** Psi4 exiting successfully. Buy a developer a beer!
