                               Psi4 1.8.2 release

  ==> Input File <==

--------------------------------------------------------------------------
MEMORY 60 GB

molecule dimer {
-1 1
F      0.000000     0.000000     0.000000
--
0 1
O     -0.438919    -0.065851    -2.824863
H     -0.453151    -0.010706    -1.844303
H      0.269337     0.572966    -3.103457
O      1.699712     2.467898    -0.707959
H      1.972730     2.097516    -1.527574
H      0.803553     2.124371    -0.498661
O     -1.598723     2.231195     0.689214
H     -1.137580     1.418592     0.486558
H     -1.200463     2.623434     1.455794
O      0.369426    -1.062940     2.386597
H      0.423642    -0.786785     1.439357
H      1.049594    -0.462803     2.764259
O     -2.326821    -1.205989    -0.091246
H     -1.446384    -0.840894    -0.034548
H     -2.150655    -2.055095    -0.428599
O      2.110671    -1.418731    -1.257848
H      1.265691    -1.026664    -0.962676
H      2.460850    -0.901074    -2.008568

units ang
no_reorient
no_com
symmetry c1
}

set {
basis        aug-cc-pVTZ
scf_type     df
}

energy("sapt2+")
--------------------------------------------------------------------------

  //              Dimer HF             //
    Molecular point group: c1
  Charge       = -1
  Multiplicity = 1
  Basis Set: AUG-CC-PVTZ
    Blend: AUG-CC-PVTZ
  Basis Set: (AUG-CC-PVTZ AUX)
    Blend: AUG-CC-PVTZ-JKFIT
  @DF-RHF Final Energy:  -555.92328779182822
    Total Energy =                       -555.9232877918282156
 Dipole X            :          0.6891670            0.7179674            1.4071344
 Dipole Y            :        -18.9324924           19.4972758            0.5647833
 Dipole Z            :         35.0875847          -35.3591531           -0.2715684
 Magnitude           :                                                    1.5403756
  //            Monomer A HF           //
    Molecular point group: c1
  Multiplicity = 1
  Basis Set: AUG-CC-PVTZ
    Blend: AUG-CC-PVTZ
  Basis Set: (AUG-CC-PVTZ AUX)
    Blend: AUG-CC-PVTZ-JKFIT
  @DF-RHF Final Energy:   -99.45116901676334
    Total Energy =                        -99.4511690167633446
  //            Monomer B HF           //
    Molecular point group: c1

    Geometry (in Angstrom), charge = 0, multiplicity = 1:

       Center              X                  Y                   Z               Mass
    ------------   -----------------  -----------------  -----------------  -----------------
      Gh(F)           0.000000000000     0.000000000000     0.000000000000    18.998403162730
         O           -0.438919000000    -0.065851000000    -2.824863000000    15.994914619570
         H           -0.453151000000    -0.010706000000    -1.844303000000     1.007825032230
         H            0.269337000000     0.572966000000    -3.103457000000     1.007825032230
         O            1.699712000000     2.467898000000    -0.707959000000    15.994914619570
         H            1.972730000000     2.097516000000    -1.527574000000     1.007825032230
         H            0.803553000000     2.124371000000    -0.498661000000     1.007825032230
         O           -1.598723000000     2.231195000000     0.689214000000    15.994914619570
         H           -1.137580000000     1.418592000000     0.486558000000     1.007825032230
         H           -1.200463000000     2.623434000000     1.455794000000     1.007825032230
         O            0.369426000000    -1.062940000000     2.386597000000    15.994914619570
         H            0.423642000000    -0.786785000000     1.439357000000     1.007825032230
         H            1.049594000000    -0.462803000000     2.764259000000     1.007825032230
         O           -2.326821000000    -1.205989000000    -0.091246000000    15.994914619570
         H           -1.446384000000    -0.840894000000    -0.034548000000     1.007825032230
         H           -2.150655000000    -2.055095000000    -0.428599000000     1.007825032230
         O            2.110671000000    -1.418731000000    -1.257848000000    15.994914619570
         H            1.265691000000    -1.026664000000    -0.962676000000     1.007825032230
         H            2.460850000000    -0.901074000000    -2.008568000000     1.007825032230

  Charge       = 0
  Multiplicity = 1
  Basis Set: AUG-CC-PVTZ
    Blend: AUG-CC-PVTZ
  Basis Set: (AUG-CC-PVTZ AUX)
    Blend: AUG-CC-PVTZ-JKFIT

    Orbital Energies [Eh]
    ---------------------

    Doubly Occupied:

       1A    -20.610377     2A    -20.598857     3A    -20.598542
       4A    -20.597308     5A    -20.591381     6A    -20.587875
       7A     -1.386002     8A     -1.382868     9A     -1.379455
      10A     -1.376784    11A     -1.368826    12A     -1.366840
      13A     -0.761030    14A     -0.753981    15A     -0.749636
      16A     -0.741386    17A     -0.735347    18A     -0.716134
      19A     -0.621388    20A     -0.613770    21A     -0.611913
      22A     -0.606280    23A     -0.601733    24A     -0.598919
      25A     -0.546529    26A     -0.541735    27A     -0.535585
      28A     -0.533946    29A     -0.532218    30A     -0.530399

  @DF-RHF Final Energy:  -456.32542855674433

   => Energetics <=

    Nuclear Repulsion Energy =            251.1259186407258710
    One-Electron Energy =               -1128.5485987649713024
    Two-Electron Energy =                 421.0972515675010754
    Total Energy =                       -456.3254285567443276
 Dipole X            :          0.5825369            0.7179674            1.3005043
 Dipole Y            :        -19.0073338           19.4972758            0.4899419
 Dipole Z            :         34.9552841          -35.3591531           -0.4038689
 Magnitude           :                                                    1.4472265

    SAPT Results
  --------------------------------------------------------------------------------------------------------
    Electrostatics               -187.09223399 [mEh]    -117.40214930 [kcal/mol]    -491.21059266 [kJ/mol]
      Elst10,r                   -186.12457468 [mEh]    -116.79493391 [kcal/mol]    -488.67000349 [kJ/mol]
      Elst12,r                     -0.96765931 [mEh]      -0.60721538 [kcal/mol]      -2.54058916 [kJ/mol]

    Exchange                      129.43443528 [mEh]      81.22133437 [kcal/mol]     339.83006301 [kJ/mol]
      Exch10                       97.56696641 [mEh]      61.22419575 [kcal/mol]     256.16203502 [kJ/mol]
      Exch10(S^2)                  98.90218895 [mEh]      62.06206054 [kcal/mol]     259.66766132 [kJ/mol]
      Exch11(S^2)                   1.87742133 [mEh]       1.17809967 [kcal/mol]       4.92916903 [kJ/mol]
      Exch12(S^2)                  29.99004753 [mEh]      18.81903895 [kcal/mol]      78.73885895 [kJ/mol]

    Induction                     -70.23396573 [mEh]     -44.07247887 [kcal/mol]    -184.39925161 [kJ/mol]
      Ind20,r                     -78.57104520 [mEh]     -49.30407523 [kcal/mol]    -206.28825076 [kJ/mol]
      Ind22                       -18.73132424 [mEh]     -11.75408341 [kcal/mol]     -49.17908500 [kJ/mol]
      Exch-Ind20,r                 27.81029003 [mEh]      17.45122046 [kcal/mol]      73.01590640 [kJ/mol]
      Exch-Ind22                    6.62996856 [mEh]       4.16036808 [kcal/mol]      17.40698006 [kJ/mol]
      delta HF,r (2)               -7.37185488 [mEh]      -4.62590877 [kcal/mol]     -19.35480231 [kJ/mol]

    Dispersion                    -37.48549937 [mEh]     -23.52250598 [kcal/mol]     -98.41816503 [kJ/mol]
      Disp20                      -36.11097344 [mEh]     -22.65997794 [kcal/mol]     -94.80934769 [kJ/mol]
      Disp21                        1.01035873 [mEh]       0.63400968 [kcal/mol]       2.65269649 [kJ/mol]
      Disp22 (SDQ)                 -4.44747286 [mEh]      -2.79083136 [kcal/mol]     -11.67683840 [kJ/mol]
      Disp22 (T)                   -6.77091203 [mEh]      -4.24881145 [kcal/mol]     -17.77702709 [kJ/mol]
      Est. Disp22 (T)              -7.82251113 [mEh]      -4.90869985 [kcal/mol]     -20.53800015 [kJ/mol]
      Exch-Disp20                   9.88509933 [mEh]       6.20299348 [kcal/mol]      25.95332472 [kJ/mol]

  Total HF                       -146.69021832 [mEh]     -92.04950171 [kcal/mol]    -385.13511514 [kJ/mol]
  Total SAPT0                    -172.91609242 [mEh]    -108.50648616 [kcal/mol]    -453.99113811 [kJ/mol]
  Total SAPT2                    -154.11763854 [mEh]     -96.71027826 [kcal/mol]    -404.63580424 [kJ/mol]
  Total SAPT2+                   -165.37726380 [mEh]    -103.77579978 [kcal/mol]    -434.19794629 [kJ/mol]

  Special recipe for scaled SAPT0 (see Manual):
    Electrostatics sSAPT0        -186.12457468 [mEh]    -116.79493391 [kcal/mol]    -488.67000349 [kJ/mol]
    Exchange sSAPT0                97.56696641 [mEh]      61.22419575 [kcal/mol]     256.16203502 [kJ/mol]
    Induction sSAPT0              -59.24382524 [mEh]     -37.17606160 [kcal/mol]    -155.54464173 [kJ/mol]
    Dispersion sSAPT0             -26.62085281 [mEh]     -16.70483734 [kcal/mol]     -69.89303943 [kJ/mol]
  Total sSAPT0                   -174.42228632 [mEh]    -109.45163710 [kcal/mol]    -457.94564964 [kJ/mol]
  --------------------------------------------------------------------------------------------------------

*** Psi4 exiting successfully. Buy a developer a beer!
