                               Psi4 1.8.2 release

  ==> Input File <==

--------------------------------------------------------------------------
MEMORY 60 GB

molecule dimer {
-1 1
F      0.000000     0.000000     0.000000
--
0 1
O     -2.554885    -0.515321     0.758406
H     -1.612284    -0.473038     0.582957
H     -2.842041    -1.403277     1.084241
O      1.083037     2.154867     1.385653
H      0.609748     1.409713     0.882328
H      1.632519     2.510959     0.665831
O      0.426737    -2.496911    -0.665385
H      0.303600    -3.137566     0.078614
H     -0.052202    -1.707756    -0.340693
O     -1.104728     2.400067    -1.171868
H     -1.500405     1.941350    -1.947783
H     -0.886647     1.656492    -0.613653

units ang
no_reorient
no_com
symmetry c1
}

set {
basis        aug-cc-pVTZ
scf_type     df
}

energy("sapt2+")
--------------------------------------------------------------------------

  //              Dimer HF             //
    Molecular point group: c1
  Charge       = -1
  Multiplicity = 1
  Basis Set: AUG-CC-PVTZ
    Blend: AUG-CC-PVTZ
  Basis Set: (AUG-CC-PVTZ AUX)
    Blend: AUG-CC-PVTZ-JKFIT
  @DF-RHF Final Energy:  -403.77603034142783
    Total Energy =                       -403.7760303414278269
 Dipole X            :         40.9719392          -40.7168403            0.2550989
 Dipole Y            :        -26.3706793           24.8281535           -1.5425259
 Dipole Z            :         -5.6177378            5.3787086           -0.2390293
 Magnitude           :                                                    1.5816436
  //            Monomer A HF           //
    Molecular point group: c1
  Multiplicity = 1
  Basis Set: AUG-CC-PVTZ
    Blend: AUG-CC-PVTZ
  Basis Set: (AUG-CC-PVTZ AUX)
    Blend: AUG-CC-PVTZ-JKFIT
  @DF-RHF Final Energy:   -99.45106182818733
    Total Energy =                        -99.4510618281873349
  //            Monomer B HF           //
    Molecular point group: c1

    Geometry (in Angstrom), charge = 0, multiplicity = 1:

       Center              X                  Y                   Z               Mass
    ------------   -----------------  -----------------  -----------------  -----------------
      Gh(F)           0.000000000000     0.000000000000     0.000000000000    18.998403162730
         O           -2.554885000000    -0.515321000000     0.758406000000    15.994914619570
         H           -1.612284000000    -0.473038000000     0.582957000000     1.007825032230
         H           -2.842041000000    -1.403277000000     1.084241000000     1.007825032230
         O            1.083037000000     2.154867000000     1.385653000000    15.994914619570
         H            0.609748000000     1.409713000000     0.882328000000     1.007825032230
         H            1.632519000000     2.510959000000     0.665831000000     1.007825032230
         O            0.426737000000    -2.496911000000    -0.665385000000    15.994914619570
         H            0.303600000000    -3.137566000000     0.078614000000     1.007825032230
         H           -0.052202000000    -1.707756000000    -0.340693000000     1.007825032230
         O           -1.104728000000     2.400067000000    -1.171868000000    15.994914619570
         H           -1.500405000000     1.941350000000    -1.947783000000     1.007825032230
         H           -0.886647000000     1.656492000000    -0.613653000000     1.007825032230

  Charge       = 0
  Multiplicity = 1
  Basis Set: AUG-CC-PVTZ
    Blend: AUG-CC-PVTZ
  Basis Set: (AUG-CC-PVTZ AUX)
    Blend: AUG-CC-PVTZ-JKFIT

    Orbital Energies [Eh]
    ---------------------

    Doubly Occupied:

       1A    -20.597177     2A    -20.595521     3A    -20.582812
       4A    -20.580651     5A     -1.369429     6A     -1.365643
       7A     -1.359844     8A     -1.345499     9A     -0.754163
      10A     -0.723134    11A     -0.716374    12A     -0.694491
      13A     -0.609222    14A     -0.598406    15A     -0.593432
      16A     -0.592033    17A     -0.535547    18A     -0.531777
      19A     -0.519865    20A     -0.514825

  @DF-RHF Final Energy:  -304.21571720520342

   => Energetics <=

    Nuclear Repulsion Energy =            113.5233629132708160
    One-Electron Energy =                -645.1184652961871961
    Two-Electron Energy =                 227.3793851777129476
    Total Energy =                       -304.2157172052034184
 Dipole X            :         40.6385577          -40.7168403           -0.0782826
 Dipole Y            :        -26.2820829           24.8281535           -1.4539294
 Dipole Z            :         -5.5015957            5.3787086           -0.1228871
 Magnitude           :                                                    1.4612119

    SAPT Results
  --------------------------------------------------------------------------------------------------------
    Electrostatics               -134.96609499 [mEh]     -84.69250325 [kcal/mol]    -354.35343358 [kJ/mol]
      Elst10,r                   -133.83384374 [mEh]     -83.98200486 [kcal/mol]    -351.38070833 [kJ/mol]
      Elst12,r                     -1.13225125 [mEh]      -0.71049839 [kcal/mol]      -2.97272525 [kJ/mol]

    Exchange                       95.51875096 [mEh]      59.93892115 [kcal/mol]     250.78444611 [kJ/mol]
      Exch10                       73.02268741 [mEh]      45.82242815 [kcal/mol]     191.72103939 [kJ/mol]
      Exch10(S^2)                  73.23985319 [mEh]      45.95870174 [kcal/mol]     192.29120807 [kJ/mol]
      Exch11(S^2)                   1.10058534 [mEh]       0.69062773 [kcal/mol]       2.88958642 [kJ/mol]
      Exch12(S^2)                  21.39547821 [mEh]      13.42586527 [kcal/mol]      56.17382029 [kJ/mol]

    Induction                     -57.27059997 [mEh]     -35.93784405 [kcal/mol]    -150.36393951 [kJ/mol]
      Ind20,r                     -61.50836227 [mEh]     -38.59708004 [kcal/mol]    -161.49018290 [kJ/mol]
      Ind22                       -13.59716667 [mEh]      -8.53235090 [kcal/mol]     -35.69935617 [kJ/mol]
      Exch-Ind20,r                 21.56280420 [mEh]      13.53086392 [kcal/mol]      56.61313463 [kJ/mol]
      Exch-Ind22                    4.76671841 [mEh]       2.99116096 [kcal/mol]      12.51501745 [kJ/mol]
      delta HF,r (2)               -8.49459364 [mEh]      -5.33043798 [kcal/mol]     -22.30255252 [kJ/mol]

    Dispersion                    -26.74849598 [mEh]     -16.78493464 [kcal/mol]     -70.22816653 [kJ/mol]
      Disp20                      -25.77401942 [mEh]     -16.17344136 [kcal/mol]     -67.66967866 [kJ/mol]
      Disp21                        0.53829622 [mEh]       0.33778598 [kcal/mol]       1.41329652 [kJ/mol]
      Disp22 (SDQ)                 -2.98828199 [mEh]      -1.87517526 [kcal/mol]      -7.84573328 [kJ/mol]
      Disp22 (T)                   -4.75511181 [mEh]      -2.98387771 [kcal/mol]     -12.48454432 [kJ/mol]
      Est. Disp22 (T)              -5.53591733 [mEh]      -3.47384057 [kcal/mol]     -14.53454895 [kJ/mol]
      Exch-Disp20                   7.01142653 [mEh]       4.39973658 [kcal/mol]      18.40849783 [kJ/mol]

  Total HF                       -109.25130804 [mEh]     -68.55623082 [kcal/mol]    -286.83926973 [kJ/mol]
  Total SAPT0                    -128.01390092 [mEh]     -80.32993560 [kcal/mol]    -336.10045056 [kJ/mol]
  Total SAPT2                    -115.48053688 [mEh]     -72.46513093 [kcal/mol]    -303.19410781 [kJ/mol]
  Total SAPT2+                   -123.46643998 [mEh]     -77.47636078 [kcal/mol]    -324.16109351 [kJ/mol]

  Special recipe for scaled SAPT0 (see Manual):
    Electrostatics sSAPT0        -133.83384374 [mEh]     -83.98200486 [kcal/mol]    -351.38070833 [kJ/mol]
    Exchange sSAPT0                73.02268741 [mEh]      45.82242815 [kcal/mol]     191.72103939 [kJ/mol]
    Induction sSAPT0              -48.63139317 [mEh]     -30.51665994 [kcal/mol]    -127.68170517 [kJ/mol]
    Dispersion sSAPT0             -18.82477753 [mEh]     -11.81272624 [kcal/mol]     -49.42444660 [kJ/mol]
  Total sSAPT0                   -128.26732703 [mEh]     -80.48896289 [kcal/mol]    -336.76582072 [kJ/mol]
  --------------------------------------------------------------------------------------------------------

*** Psi4 exiting successfully. Buy a developer a beer!
