                               Psi4 1.8.2 release

  ==> Input File <==

--------------------------------------------------------------------------
MEMORY 60 GB

molecule dimer {
-1 1
F      0.000000     0.000000     0.000000
--
0 1
O      0.588473    -0.884411    -2.532590
H      0.570163    -0.750592    -1.554364
H      0.212599    -1.767260    -2.854982
O      1.249696     2.505029    -0.435608
H      0.855008     1.572903    -0.277964
H      2.124949     2.543701     0.017355
O     -2.575407    -0.483611     0.341632
H     -3.023020    -0.104900    -0.406895
H     -1.638645    -0.352131     0.088858
O      0.581612     0.878877     2.831679
H      0.628358     0.650704     1.918655
H      1.486052     1.034802     3.119274
O     -0.124634    -2.755181     0.993578
H     -0.046177    -1.822951     0.906365
H      0.293841    -3.171635     0.264619

units ang
no_reorient
no_com
symmetry c1
}

set {
basis        aug-cc-pVTZ
scf_type     df
}

energy("sapt2+")
--------------------------------------------------------------------------

  //              Dimer HF             //
    Molecular point group: c1
  Charge       = -1
  Multiplicity = 1
  Basis Set: AUG-CC-PVTZ
    Blend: AUG-CC-PVTZ
  Basis Set: (AUG-CC-PVTZ AUX)
    Blend: AUG-CC-PVTZ-JKFIT
  @DF-RHF Final Energy:  -479.84757604149775
    Total Energy =                       -479.8475760414977458
 Dipole X            :          2.7931324           -1.4720059            1.3211264
 Dipole Y            :         14.9230137          -15.2722658           -0.3492521
 Dipole Z            :        -21.1474014           20.4287879           -0.7186135
 Magnitude           :                                                    1.5439422
  //            Monomer A HF           //
    Molecular point group: c1
  Multiplicity = 1
  Basis Set: AUG-CC-PVTZ
    Blend: AUG-CC-PVTZ
  Basis Set: (AUG-CC-PVTZ AUX)
    Blend: AUG-CC-PVTZ-JKFIT
  @DF-RHF Final Energy:   -99.45111197359526
    Total Energy =                        -99.4511119735952747
  //            Monomer B HF           //
    Molecular point group: c1

    Geometry (in Angstrom), charge = 0, multiplicity = 1:

       Center              X                  Y                   Z               Mass
    ------------   -----------------  -----------------  -----------------  -----------------
      Gh(F)           0.000000000000     0.000000000000     0.000000000000    18.998403162730
         O            0.588473000000    -0.884411000000    -2.532590000000    15.994914619570
         H            0.570163000000    -0.750592000000    -1.554364000000     1.007825032230
         H            0.212599000000    -1.767260000000    -2.854982000000     1.007825032230
         O            1.249696000000     2.505029000000    -0.435608000000    15.994914619570
         H            0.855008000000     1.572903000000    -0.277964000000     1.007825032230
         H            2.124949000000     2.543701000000     0.017355000000     1.007825032230
         O           -2.575407000000    -0.483611000000     0.341632000000    15.994914619570
         H           -3.023020000000    -0.104900000000    -0.406895000000     1.007825032230
         H           -1.638645000000    -0.352131000000     0.088858000000     1.007825032230
         O            0.581612000000     0.878877000000     2.831679000000    15.994914619570
         H            0.628358000000     0.650704000000     1.918655000000     1.007825032230
         H            1.486052000000     1.034802000000     3.119274000000     1.007825032230
         O           -0.124634000000    -2.755181000000     0.993578000000    15.994914619570
         H           -0.046177000000    -1.822951000000     0.906365000000     1.007825032230
         H            0.293841000000    -3.171635000000     0.264619000000     1.007825032230

  Charge       = 0
  Multiplicity = 1
  Basis Set: AUG-CC-PVTZ
    Blend: AUG-CC-PVTZ
  Basis Set: (AUG-CC-PVTZ AUX)
    Blend: AUG-CC-PVTZ-JKFIT

    Orbital Energies [Eh]
    ---------------------

    Doubly Occupied:

       1A    -20.598132     2A    -20.595191     3A    -20.582465
       4A    -20.581104     5A    -20.579207     6A     -1.377293
       7A     -1.372058     8A     -1.363007     9A     -1.354938
      10A     -1.349085    11A     -0.756134    12A     -0.742717
      13A     -0.741841    14A     -0.718958    15A     -0.717953
      16A     -0.600775    17A     -0.599069    18A     -0.594736
      19A     -0.587451    20A     -0.582864    21A     -0.532019
      22A     -0.529861    23A     -0.528564    24A     -0.522482
      25A     -0.518493

  @DF-RHF Final Energy:  -380.26675809957624

   => Energetics <=

    Nuclear Repulsion Energy =            171.0805281612070416
    One-Electron Energy =                -864.6417736534237974
    Two-Electron Energy =                 313.2944873926405762
    Total Energy =                       -380.2667580995762364
 Dipole X            :          2.7267887           -1.4720059            1.2547828
 Dipole Y            :         14.8509190          -15.2722658           -0.4213468
 Dipole Z            :        -21.2083543           20.4287879           -0.7795664
 Magnitude           :                                                    1.5361434

    SAPT Results
  --------------------------------------------------------------------------------------------------------
    Electrostatics               -154.24943687 [mEh]     -96.79298296 [kcal/mol]    -404.98184071 [kJ/mol]
      Elst10,r                   -153.37713308 [mEh]     -96.24560407 [kcal/mol]    -402.69160743 [kJ/mol]
      Elst12,r                     -0.87230379 [mEh]      -0.54737889 [kcal/mol]      -2.29023328 [kJ/mol]

    Exchange                       98.30279006 [mEh]      61.68593206 [kcal/mol]     258.09393976 [kJ/mol]
      Exch10                       74.12938241 [mEh]      46.51688975 [kcal/mol]     194.62666672 [kJ/mol]
      Exch10(S^2)                  74.82049487 [mEh]      46.95056936 [kcal/mol]     196.44118222 [kJ/mol]
      Exch11(S^2)                   1.34961288 [mEh]       0.84689487 [kcal/mol]       3.54340814 [kJ/mol]
      Exch12(S^2)                  22.82379477 [mEh]      14.32214744 [kcal/mol]      59.92386490 [kJ/mol]

    Induction                     -60.05597180 [mEh]     -37.68569126 [kcal/mol]    -157.67693224 [kJ/mol]
      Ind20,r                     -64.04184438 [mEh]     -40.18686406 [kcal/mol]    -168.14183925 [kJ/mol]
      Ind22                       -14.21983354 [mEh]      -8.92308026 [kcal/mol]     -37.33416781 [kJ/mol]
      Exch-Ind20,r                 20.81645250 [mEh]      13.06252116 [kcal/mol]      54.65358852 [kJ/mol]
      Exch-Ind22                    4.62207940 [mEh]       2.90039861 [kcal/mol]      12.13526779 [kJ/mol]
      delta HF,r (2)               -7.23282578 [mEh]      -4.53866670 [kcal/mol]     -18.98978148 [kJ/mol]

    Dispersion                    -29.50082674 [mEh]     -18.51204826 [kcal/mol]     -77.45440994 [kJ/mol]
      Disp20                      -27.99595690 [mEh]     -17.56772818 [kcal/mol]     -73.50337470 [kJ/mol]
      Disp21                        0.46301382 [mEh]       0.29054556 [kcal/mol]       1.21564261 [kJ/mol]
      Disp22 (SDQ)                 -3.34999133 [mEh]      -2.10215130 [kcal/mol]      -8.79540102 [kJ/mol]
      Disp22 (T)                   -5.20548454 [mEh]      -3.26649086 [kcal/mol]     -13.66699776 [kJ/mol]
      Est. Disp22 (T)              -6.08006242 [mEh]      -3.81529677 [kcal/mol]     -15.96320169 [kJ/mol]
      Exch-Disp20                   7.46217009 [mEh]       4.68258242 [kcal/mol]      19.59192487 [kJ/mol]

  Total HF                       -129.70596833 [mEh]     -81.39172393 [kcal/mol]    -340.54297292 [kJ/mol]
  Total SAPT0                    -150.23975513 [mEh]     -94.27686968 [kcal/mol]    -394.45442276 [kJ/mol]
  Total SAPT2                    -136.53640542 [mEh]     -85.67788791 [kcal/mol]    -358.47628303 [kJ/mol]
  Total SAPT2+                   -145.50344535 [mEh]     -91.30479042 [kcal/mol]    -382.01924313 [kJ/mol]

  Special recipe for scaled SAPT0 (see Manual):
    Electrostatics sSAPT0        -153.37713308 [mEh]     -96.24560407 [kcal/mol]    -402.69160743 [kJ/mol]
    Exchange sSAPT0                74.12938241 [mEh]      46.51688975 [kcal/mol]     194.62666672 [kJ/mol]
    Induction sSAPT0              -51.02974682 [mEh]     -32.02164957 [kcal/mol]    -133.97858180 [kJ/mol]
    Dispersion sSAPT0             -20.73866551 [mEh]     -13.01370908 [kcal/mol]     -54.44935880 [kJ/mol]
  Total sSAPT0                   -151.01616299 [mEh]     -94.76407297 [kcal/mol]    -396.49288131 [kJ/mol]
  --------------------------------------------------------------------------------------------------------

*** Psi4 exiting successfully. Buy a developer a beer!
