                               Psi4 1.8.2 release

  ==> Input File <==

--------------------------------------------------------------------------
MEMORY 60 GB

molecule dimer {
-1 1
F      0.000000     0.000000     0.000000
--
0 1
O      2.400550     0.878111     1.258466
H      1.541205     0.949633     0.811432
H      2.699131     1.774987     1.477501
O     -2.134479     1.075150     1.390297
H     -2.935259     0.501464     1.548356
H     -1.522539     0.602603     0.828169
O     -2.058570    -0.966210    -1.758447
H     -1.269903    -0.802439    -1.187441
H     -2.168440    -1.875697    -2.119616
O      2.056294    -1.500050    -1.140092
H      1.522958    -0.799826    -0.738451
H      2.773549    -1.554714    -0.462578
O     -0.008638     2.314735    -1.744331
H     -0.015099     1.517325    -1.142884
H     -0.979067     2.389768    -1.960602
O      0.111329    -1.229377     2.544786
H     -0.031102    -0.875406     1.676046
H      0.128193    -0.452941     3.103989

units ang
no_reorient
no_com
symmetry c1
}

set {
basis        aug-cc-pVTZ
scf_type     df
}

energy("sapt2+")
--------------------------------------------------------------------------

  //              Dimer HF             //
    Molecular point group: c1
  Charge       = -1
  Multiplicity = 1
  Basis Set: AUG-CC-PVTZ
    Blend: AUG-CC-PVTZ
  Basis Set: (AUG-CC-PVTZ AUX)
    Blend: AUG-CC-PVTZ-JKFIT
  @DF-RHF Final Energy:  -555.92545712738445
    Total Energy =                       -555.9254571273844476
 Dipole X            :         -5.6206712            5.0559906           -0.5646806
 Dipole Y            :        -11.1655630           11.2507283            0.0851652
 Dipole Z            :        -11.3776983           11.7906684            0.4129700
 Magnitude           :                                                    0.7047422
  //            Monomer A HF           //
    Molecular point group: c1
  Multiplicity = 1
  Basis Set: AUG-CC-PVTZ
    Blend: AUG-CC-PVTZ
  Basis Set: (AUG-CC-PVTZ AUX)
    Blend: AUG-CC-PVTZ-JKFIT
  @DF-RHF Final Energy:   -99.45114904754124
    Total Energy =                        -99.4511490475412216
  //            Monomer B HF           //
    Molecular point group: c1

    Geometry (in Angstrom), charge = 0, multiplicity = 1:

       Center              X                  Y                   Z               Mass
    ------------   -----------------  -----------------  -----------------  -----------------
      Gh(F)           0.000000000000     0.000000000000     0.000000000000    18.998403162730
         O            2.400550000000     0.878111000000     1.258466000000    15.994914619570
         H            1.541205000000     0.949633000000     0.811432000000     1.007825032230
         H            2.699131000000     1.774987000000     1.477501000000     1.007825032230
         O           -2.134479000000     1.075150000000     1.390297000000    15.994914619570
         H           -2.935259000000     0.501464000000     1.548356000000     1.007825032230
         H           -1.522539000000     0.602603000000     0.828169000000     1.007825032230
         O           -2.058570000000    -0.966210000000    -1.758447000000    15.994914619570
         H           -1.269903000000    -0.802439000000    -1.187441000000     1.007825032230
         H           -2.168440000000    -1.875697000000    -2.119616000000     1.007825032230
         O            2.056294000000    -1.500050000000    -1.140092000000    15.994914619570
         H            1.522958000000    -0.799826000000    -0.738451000000     1.007825032230
         H            2.773549000000    -1.554714000000    -0.462578000000     1.007825032230
         O           -0.008638000000     2.314735000000    -1.744331000000    15.994914619570
         H           -0.015099000000     1.517325000000    -1.142884000000     1.007825032230
         H           -0.979067000000     2.389768000000    -1.960602000000     1.007825032230
         O            0.111329000000    -1.229377000000     2.544786000000    15.994914619570
         H           -0.031102000000    -0.875406000000     1.676046000000     1.007825032230
         H            0.128193000000    -0.452941000000     3.103989000000     1.007825032230

  Charge       = 0
  Multiplicity = 1
  Basis Set: AUG-CC-PVTZ
    Blend: AUG-CC-PVTZ
  Basis Set: (AUG-CC-PVTZ AUX)
    Blend: AUG-CC-PVTZ-JKFIT

    Orbital Energies [Eh]
    ---------------------

    Doubly Occupied:

       1A    -20.596293     2A    -20.595866     3A    -20.594249
       4A    -20.591622     5A    -20.581050     6A    -20.578042
       7A     -1.373785     8A     -1.370174     9A     -1.366893
      10A     -1.356997    11A     -1.355177    12A     -1.353910
      13A     -0.752677    14A     -0.748517    15A     -0.743150
      16A     -0.729655    17A     -0.708108    18A     -0.703849
      19A     -0.607188    20A     -0.602143    21A     -0.601854
      22A     -0.597529    23A     -0.597274    24A     -0.581472
      25A     -0.539554    26A     -0.535633    27A     -0.529815
      28A     -0.525147    29A     -0.518541    30A     -0.517732

  @DF-RHF Final Energy:  -456.32870707206729

   => Energetics <=

    Nuclear Repulsion Energy =            247.2304255585694079
    One-Electron Energy =               -1121.4104675097330528
    Two-Electron Energy =                 417.8513348790963278
    Total Energy =                       -456.3287070720672887
 Dipole X            :         -5.6715298            5.0559906           -0.6155393
 Dipole Y            :        -11.0614988           11.2507283            0.1892295
 Dipole Z            :        -11.3119418           11.7906684            0.4787266
 Magnitude           :                                                    0.8024185

    SAPT Results
  --------------------------------------------------------------------------------------------------------
    Electrostatics               -170.60284653 [mEh]    -107.05490245 [kcal/mol]    -447.91771187 [kJ/mol]
      Elst10,r                   -169.23929965 [mEh]    -106.19926386 [kcal/mol]    -444.33772001 [kJ/mol]
      Elst12,r                     -1.36354689 [mEh]      -0.85563859 [kcal/mol]      -3.57999186 [kJ/mol]

    Exchange                      103.18887949 [mEh]      64.75199947 [kcal/mol]     270.92236578 [kJ/mol]
      Exch10                       76.21554454 [mEh]      47.82597625 [kcal/mol]     200.10388462 [kJ/mol]
      Exch10(S^2)                  77.27036502 [mEh]      48.48788609 [kcal/mol]     202.87331541 [kJ/mol]
      Exch11(S^2)                   1.56747864 [mEh]       0.98360770 [kcal/mol]       4.11541461 [kJ/mol]
      Exch12(S^2)                  25.40585631 [mEh]      15.94241552 [kcal/mol]      66.70306655 [kJ/mol]

    Induction                     -63.35769279 [mEh]     -39.75755246 [kcal/mol]    -166.34559950 [kJ/mol]
      Ind20,r                     -67.32853497 [mEh]     -42.24929355 [kcal/mol]    -176.77104422 [kJ/mol]
      Ind22                       -15.44792989 [mEh]      -9.69372236 [kcal/mol]     -40.55853434 [kJ/mol]
      Exch-Ind20,r                 20.34287120 [mEh]      12.76534440 [kcal/mol]      53.41020098 [kJ/mol]
      Exch-Ind22                    4.66748977 [mEh]       2.92889405 [kcal/mol]      12.25449270 [kJ/mol]
      delta HF,r (2)               -5.59158890 [mEh]      -3.50877501 [kcal/mol]     -14.68071462 [kJ/mol]

    Dispersion                    -33.72087004 [mEh]     -21.16016542 [kcal/mol]     -88.53413210 [kJ/mol]
      Disp20                      -31.53254485 [mEh]     -19.78697063 [kcal/mol]     -82.78868510 [kJ/mol]
      Disp21                        0.52474799 [mEh]       0.32928433 [kcal/mol]       1.37772565 [kJ/mol]
      Disp22 (SDQ)                 -3.86990723 [mEh]      -2.42840345 [kcal/mol]     -10.16044005 [kJ/mol]
      Disp22 (T)                   -5.95225129 [mEh]      -3.73509407 [kcal/mol]     -15.62763360 [kJ/mol]
      Est. Disp22 (T)              -6.92783084 [mEh]      -4.34727948 [kcal/mol]     -18.18901736 [kJ/mol]
      Exch-Disp20                   8.08466489 [mEh]       5.07320381 [kcal/mol]      21.22628475 [kJ/mol]

  Total HF                       -145.60100778 [mEh]     -91.36601177 [kcal/mol]    -382.27539325 [kJ/mol]
  Total SAPT0                    -169.04888773 [mEh]    -106.07977858 [kcal/mol]    -443.83779359 [kJ/mol]
  Total SAPT2                    -154.21953979 [mEh]     -96.77422226 [kcal/mol]    -404.90334594 [kJ/mol]
  Total SAPT2+                   -164.49252988 [mEh]    -103.22062086 [kcal/mol]    -431.87507769 [kJ/mol]

  Special recipe for scaled SAPT0 (see Manual):
    Electrostatics sSAPT0        -169.23929965 [mEh]    -106.19926386 [kcal/mol]    -444.33772001 [kJ/mol]
    Exchange sSAPT0                76.21554454 [mEh]      47.82597625 [kcal/mol]     200.10388462 [kJ/mol]
    Induction sSAPT0              -53.39903545 [mEh]     -33.50840063 [kcal/mol]    -140.19914825 [kJ/mol]
    Dispersion sSAPT0             -23.77447291 [mEh]     -14.91870699 [kcal/mol]     -62.41987003 [kJ/mol]
  Total sSAPT0                   -170.19726347 [mEh]    -106.80039524 [kcal/mol]    -446.85285366 [kJ/mol]
  --------------------------------------------------------------------------------------------------------

*** Psi4 exiting successfully. Buy a developer a beer!
