                               Psi4 1.8.2 release

  ==> Input File <==

--------------------------------------------------------------------------
MEMORY 60 GB

molecule dimer {
-1 1
F      0.000000     0.000000     0.000000
--
0 1
O      0.544622     1.947141    -1.930994
H     -0.303699     2.411400    -1.706903
H      0.604706     1.172877    -1.303359
O     -2.128467     0.389057     1.730632
H     -1.379894     0.192361     1.173874
H     -1.919456     0.067224     2.612103
O     -0.085529    -2.704846    -1.508295
H     -0.656689    -3.406752    -1.099236
H     -0.267173    -1.961465    -0.940136
O      1.549814     1.756379     1.450147
H      1.046493     1.052841     1.074196
H      1.497360     2.437675     0.800406
O     -2.175092    -0.185080    -1.433318
H     -2.620425     0.653858    -1.755423
H     -1.332482     0.046421    -1.015543

units ang
no_reorient
no_com
symmetry c1
}

set {
basis        aug-cc-pVTZ
scf_type     df
}

energy("sapt2+")
--------------------------------------------------------------------------

  //              Dimer HF             //
    Molecular point group: c1
  Charge       = -1
  Multiplicity = 1
  Basis Set: AUG-CC-PVTZ
    Blend: AUG-CC-PVTZ
  Basis Set: (AUG-CC-PVTZ AUX)
    Blend: AUG-CC-PVTZ-JKFIT
  @DF-RHF Final Energy:  -479.85405964976201
    Total Energy =                       -479.8540596497620072
 Dipole X            :         44.6479024          -44.7647301           -0.1168277
 Dipole Y            :        -23.3823909           23.2202894           -0.1621015
 Dipole Z            :         30.5466127          -29.6585807            0.8880320
 Magnitude           :                                                    0.9102342
  //            Monomer A HF           //
    Molecular point group: c1
  Multiplicity = 1
  Basis Set: AUG-CC-PVTZ
    Blend: AUG-CC-PVTZ
  Basis Set: (AUG-CC-PVTZ AUX)
    Blend: AUG-CC-PVTZ-JKFIT
  @DF-RHF Final Energy:   -99.45112010087895
    Total Energy =                        -99.4511201008789527
  //            Monomer B HF           //
    Molecular point group: c1

    Geometry (in Angstrom), charge = 0, multiplicity = 1:

       Center              X                  Y                   Z               Mass
    ------------   -----------------  -----------------  -----------------  -----------------
      Gh(F)           0.000000000000     0.000000000000     0.000000000000    18.998403162730
         O            0.544622000000     1.947141000000    -1.930994000000    15.994914619570
         H           -0.303699000000     2.411400000000    -1.706903000000     1.007825032230
         H            0.604706000000     1.172877000000    -1.303359000000     1.007825032230
         O           -2.128467000000     0.389057000000     1.730632000000    15.994914619570
         H           -1.379894000000     0.192361000000     1.173874000000     1.007825032230
         H           -1.919456000000     0.067224000000     2.612103000000     1.007825032230
         O           -0.085529000000    -2.704846000000    -1.508295000000    15.994914619570
         H           -0.656689000000    -3.406752000000    -1.099236000000     1.007825032230
         H           -0.267173000000    -1.961465000000    -0.940136000000     1.007825032230
         O            1.549814000000     1.756379000000     1.450147000000    15.994914619570
         H            1.046493000000     1.052841000000     1.074196000000     1.007825032230
         H            1.497360000000     2.437675000000     0.800406000000     1.007825032230
         O           -2.175092000000    -0.185080000000    -1.433318000000    15.994914619570
         H           -2.620425000000     0.653858000000    -1.755423000000     1.007825032230
         H           -1.332482000000     0.046421000000    -1.015543000000     1.007825032230

  Charge       = 0
  Multiplicity = 1
  Basis Set: AUG-CC-PVTZ
    Blend: AUG-CC-PVTZ
  Basis Set: (AUG-CC-PVTZ AUX)
    Blend: AUG-CC-PVTZ-JKFIT

    Orbital Energies [Eh]
    ---------------------

    Doubly Occupied:

       1A    -20.606098     2A    -20.592804     3A    -20.586362
       4A    -20.584969     5A    -20.576078     6A     -1.382106
       7A     -1.372371     8A     -1.367202     9A     -1.360468
      10A     -1.352861    11A     -0.749817    12A     -0.743376
      13A     -0.735954    14A     -0.730070    15A     -0.707431
      16A     -0.614884    17A     -0.605754    18A     -0.599092
      19A     -0.593663    20A     -0.588914    21A     -0.540237
      22A     -0.533677    23A     -0.530781    24A     -0.523911
      25A     -0.513333

  @DF-RHF Final Energy:  -380.27295763808422

   => Energetics <=

    Nuclear Repulsion Energy =            177.6416790874089884
    One-Electron Energy =                -877.6448464319581717
    Two-Electron Energy =                 319.7302097064649615
    Total Energy =                       -380.2729576380842218
 Dipole X            :         44.1765028          -44.7647301           -0.5882273
 Dipole Y            :        -22.9923718           23.2202894            0.2279176
 Dipole Z            :         30.3355164          -29.6585807            0.6769357
 Magnitude           :                                                    0.9253106

    SAPT Results
  --------------------------------------------------------------------------------------------------------
    Electrostatics               -160.51872693 [mEh]    -100.72702186 [kcal/mol]    -421.44185948 [kJ/mol]
      Elst10,r                   -159.64885885 [mEh]    -100.18117140 [kcal/mol]    -419.15802116 [kJ/mol]
      Elst12,r                     -0.86986808 [mEh]      -0.54585046 [kcal/mol]      -2.28383832 [kJ/mol]

    Exchange                      106.65204913 [mEh]      66.92517123 [kcal/mol]     280.01491642 [kJ/mol]
      Exch10                       80.81959588 [mEh]      50.71506208 [kcal/mol]     212.19181975 [kJ/mol]
      Exch10(S^2)                  81.28285836 [mEh]      51.00576368 [kcal/mol]     213.40811522 [kJ/mol]
      Exch11(S^2)                   1.39724590 [mEh]       0.87678504 [kcal/mol]       3.66846860 [kJ/mol]
      Exch12(S^2)                  24.43520736 [mEh]      15.33332411 [kcal/mol]      64.15462807 [kJ/mol]

    Induction                     -61.20887029 [mEh]     -38.40914599 [kcal/mol]    -160.70386681 [kJ/mol]
      Ind20,r                     -66.94674823 [mEh]     -42.00971875 [kcal/mol]    -175.76866327 [kJ/mol]
      Ind22                       -15.52624357 [mEh]      -9.74286493 [kcal/mol]     -40.76414687 [kJ/mol]
      Exch-Ind20,r                 23.58588053 [mEh]      14.80036348 [kcal/mol]      61.92472079 [kJ/mol]
      Exch-Ind22                    5.47002111 [mEh]       3.43249007 [kcal/mol]      14.36153844 [kJ/mol]
      delta HF,r (2)               -7.79178013 [mEh]      -4.88941585 [kcal/mol]     -20.45731590 [kJ/mol]

    Dispersion                    -30.81698437 [mEh]     -19.33794964 [kcal/mol]     -80.90998130 [kJ/mol]
      Disp20                      -29.56643708 [mEh]     -18.55321938 [kcal/mol]     -77.62666987 [kJ/mol]
      Disp21                        0.70305211 [mEh]       0.44117186 [kcal/mol]       1.84586305 [kJ/mol]
      Disp22 (SDQ)                 -3.56693326 [mEh]      -2.23828441 [kcal/mol]      -9.36498199 [kJ/mol]
      Disp22 (T)                   -5.47300516 [mEh]      -3.43436259 [kcal/mol]     -14.36937308 [kJ/mol]
      Est. Disp22 (T)              -6.36814294 [mEh]      -3.99607002 [kcal/mol]     -16.71955698 [kJ/mol]
      Exch-Disp20                   7.98147681 [mEh]       5.00845231 [kcal/mol]      20.95536448 [kJ/mol]

  Total HF                       -129.98191080 [mEh]     -81.56488045 [kcal/mol]    -341.26745979 [kJ/mol]
  Total SAPT0                    -151.56687107 [mEh]     -95.10964751 [kcal/mol]    -397.93876517 [kJ/mol]
  Total SAPT2                    -136.66050836 [mEh]     -85.75576369 [kcal/mol]    -358.80211526 [kJ/mol]
  Total SAPT2+                   -145.89253245 [mEh]     -91.54894627 [kcal/mol]    -383.04079118 [kJ/mol]

  Special recipe for scaled SAPT0 (see Manual):
    Electrostatics sSAPT0        -159.64885885 [mEh]    -100.18117140 [kcal/mol]    -419.15802116 [kJ/mol]
    Exchange sSAPT0                80.81959588 [mEh]      50.71506208 [kcal/mol]     212.19181975 [kJ/mol]
    Induction sSAPT0              -51.55362897 [mEh]     -32.35039059 [kcal/mol]    -135.35403421 [kJ/mol]
    Dispersion sSAPT0             -21.72065254 [mEh]     -13.62991525 [kcal/mol]     -57.02756539 [kJ/mol]
  Total sSAPT0                   -152.10354448 [mEh]     -95.44641516 [kcal/mol]    -399.34780102 [kJ/mol]
  --------------------------------------------------------------------------------------------------------

*** Psi4 exiting successfully. Buy a developer a beer!
