                               Psi4 1.8.2 release

  ==> Input File <==

--------------------------------------------------------------------------
MEMORY 60 GB

molecule dimer {
-1 1
F      0.000000     0.000000     0.000000
--
0 1
O      0.316579     2.487371    -1.033870
H     -0.299784     2.958747    -1.698141
H      0.068567     1.636716    -0.609642
O     -2.966622    -0.324922    -0.279360
H     -1.997157    -0.168453    -0.193960
H     -3.039299    -1.203601    -0.674475
O      2.620493     0.082477    -0.913598
H      3.090818    -0.144429    -0.074903
H      1.665367     0.173836    -0.709739
O     -1.016627     1.008044     2.356890
H     -0.498021     0.696455     1.582640
H     -1.005983     0.224406     2.964702
O     -0.584061    -0.002881    -2.710546
H      0.203428     0.427802    -3.052160
H     -0.399019    -0.109730    -1.768497

units ang
no_reorient
no_com
symmetry c1
}

set {
basis        aug-cc-pVTZ
scf_type     df
}

energy("sapt2+")
--------------------------------------------------------------------------

  //              Dimer HF             //
    Molecular point group: c1
  Charge       = -1
  Multiplicity = 1
  Basis Set: AUG-CC-PVTZ
    Blend: AUG-CC-PVTZ
  Basis Set: (AUG-CC-PVTZ AUX)
    Blend: AUG-CC-PVTZ-JKFIT
  @DF-RHF Final Energy:  -479.84489487376766
    Total Energy =                       -479.8448948737676574
 Dipole X            :         29.5679695          -28.8239680            0.7440014
 Dipole Y            :        -59.2859776           57.6224002           -1.6635774
 Dipole Z            :         47.8956278          -47.0126954            0.8829324
 Magnitude           :                                                    2.0249932
  //            Monomer A HF           //
    Molecular point group: c1
  Multiplicity = 1
  Basis Set: AUG-CC-PVTZ
    Blend: AUG-CC-PVTZ
  Basis Set: (AUG-CC-PVTZ AUX)
    Blend: AUG-CC-PVTZ-JKFIT
  @DF-RHF Final Energy:   -99.45112073078730
    Total Energy =                        -99.4511207307872951
  //            Monomer B HF           //
    Molecular point group: c1

    Geometry (in Angstrom), charge = 0, multiplicity = 1:

       Center              X                  Y                   Z               Mass
    ------------   -----------------  -----------------  -----------------  -----------------
      Gh(F)           0.000000000000     0.000000000000     0.000000000000    18.998403162730
         O            0.316579000000     2.487371000000    -1.033870000000    15.994914619570
         H           -0.299784000000     2.958747000000    -1.698141000000     1.007825032230
         H            0.068567000000     1.636716000000    -0.609642000000     1.007825032230
         O           -2.966622000000    -0.324922000000    -0.279360000000    15.994914619570
         H           -1.997157000000    -0.168453000000    -0.193960000000     1.007825032230
         H           -3.039299000000    -1.203601000000    -0.674475000000     1.007825032230
         O            2.620493000000     0.082477000000    -0.913598000000    15.994914619570
         H            3.090818000000    -0.144429000000    -0.074903000000     1.007825032230
         H            1.665367000000     0.173836000000    -0.709739000000     1.007825032230
         O           -1.016627000000     1.008044000000     2.356890000000    15.994914619570
         H           -0.498021000000     0.696455000000     1.582640000000     1.007825032230
         H           -1.005983000000     0.224406000000     2.964702000000     1.007825032230
         O           -0.584061000000    -0.002881000000    -2.710546000000    15.994914619570
         H            0.203428000000     0.427802000000    -3.052160000000     1.007825032230
         H           -0.399019000000    -0.109730000000    -1.768497000000     1.007825032230

  Charge       = 0
  Multiplicity = 1
  Basis Set: AUG-CC-PVTZ
    Blend: AUG-CC-PVTZ
  Basis Set: (AUG-CC-PVTZ AUX)
    Blend: AUG-CC-PVTZ-JKFIT

    Orbital Energies [Eh]
    ---------------------

    Doubly Occupied:

       1A    -20.592301     2A    -20.590943     3A    -20.586513
       4A    -20.584580     5A    -20.580232     6A     -1.370655
       7A     -1.358733     8A     -1.358256     9A     -1.353418
      10A     -1.341272    11A     -0.749682    12A     -0.732841
      13A     -0.727793    14A     -0.720792    15A     -0.714115
      16A     -0.604903    17A     -0.599551    18A     -0.592518
      19A     -0.588987    20A     -0.564579    21A     -0.533781
      22A     -0.528030    23A     -0.524769    24A     -0.516367
      25A     -0.513952

  @DF-RHF Final Energy:  -380.25702864587265

   => Energetics <=

    Nuclear Repulsion Energy =            180.9181057948862872
    One-Electron Energy =                -884.4911331313785468
    Two-Electron Energy =                 323.3159986906196082
    Total Energy =                       -380.2570286458726514
 Dipole X            :         29.4432288          -28.8239680            0.6192608
 Dipole Y            :        -58.7631281           57.6224002           -1.1407279
 Dipole Z            :         47.5258118          -47.0126954            0.5131164
 Magnitude           :                                                    1.3957193

    SAPT Results
  --------------------------------------------------------------------------------------------------------
    Electrostatics               -164.28889727 [mEh]    -103.09283947 [kcal/mol]    -431.34044035 [kJ/mol]
      Elst10,r                   -163.81636354 [mEh]    -102.79632008 [kcal/mol]    -430.09980321 [kJ/mol]
      Elst12,r                     -0.47253373 [mEh]      -0.29651939 [kcal/mol]      -1.24063715 [kJ/mol]

    Exchange                      107.90268504 [mEh]      67.70995711 [kcal/mol]     283.29846054 [kJ/mol]
      Exch10                       81.02991628 [mEh]      50.84704013 [kcal/mol]     212.74401590 [kJ/mol]
      Exch10(S^2)                  81.70421411 [mEh]      51.27016840 [kcal/mol]     214.51438459 [kJ/mol]
      Exch11(S^2)                   1.69529195 [mEh]       1.06381176 [kcal/mol]       4.45098840 [kJ/mol]
      Exch12(S^2)                  25.17747680 [mEh]      15.79910522 [kcal/mol]      66.10345624 [kJ/mol]

    Induction                     -64.43294739 [mEh]     -40.43228491 [kcal/mol]    -169.16868007 [kJ/mol]
      Ind20,r                     -68.19550903 [mEh]     -42.79332799 [kcal/mol]    -179.04728430 [kJ/mol]
      Ind22                       -15.67860402 [mEh]      -9.83847256 [kcal/mol]     -41.16416918 [kJ/mol]
      Exch-Ind20,r                 22.63834252 [mEh]      14.20577440 [kcal/mol]      59.43696009 [kJ/mol]
      Exch-Ind22                    5.20470648 [mEh]       3.26600263 [kcal/mol]      13.66495499 [kJ/mol]
      delta HF,r (2)               -8.40188334 [mEh]      -5.27226140 [kcal/mol]     -22.05914168 [kJ/mol]

    Dispersion                    -31.71435738 [mEh]     -19.90105971 [kcal/mol]     -83.26603383 [kJ/mol]
      Disp20                      -30.39352268 [mEh]     -19.07222342 [kcal/mol]     -79.79818279 [kJ/mol]
      Disp21                        0.79081257 [mEh]       0.49624238 [kcal/mol]       2.07627812 [kJ/mol]
      Disp22 (SDQ)                 -3.69380224 [mEh]      -2.31789590 [kcal/mol]      -9.69807645 [kJ/mol]
      Disp22 (T)                   -5.71085892 [mEh]      -3.58361808 [kcal/mol]     -14.99385803 [kJ/mol]
      Est. Disp22 (T)              -6.63215488 [mEh]      -4.16174002 [kcal/mol]     -17.41272023 [kJ/mol]
      Exch-Disp20                   8.21430984 [mEh]       5.15455725 [kcal/mol]      21.56666752 [kJ/mol]

  Total HF                       -136.74549711 [mEh]     -85.80909493 [kcal/mol]    -359.02525319 [kJ/mol]
  Total SAPT0                    -158.92470994 [mEh]     -99.72676111 [kcal/mol]    -417.25676847 [kJ/mol]
  Total SAPT2                    -142.99837246 [mEh]     -89.73283345 [kcal/mol]    -375.44217516 [kJ/mol]
  Total SAPT2+                   -152.53351700 [mEh]     -95.71622699 [kcal/mol]    -400.47669372 [kJ/mol]

  Special recipe for scaled SAPT0 (see Manual):
    Electrostatics sSAPT0        -163.81636354 [mEh]    -102.79632008 [kcal/mol]    -430.09980321 [kJ/mol]
    Exchange sSAPT0                81.02991628 [mEh]      50.84704013 [kcal/mol]     212.74401590 [kJ/mol]
    Induction sSAPT0              -54.51493371 [mEh]     -34.20863736 [kcal/mol]    -143.12893873 [kJ/mol]
    Dispersion sSAPT0             -22.38091498 [mEh]     -14.04423618 [kcal/mol]     -58.76108417 [kJ/mol]
  Total sSAPT0                   -159.68229594 [mEh]    -100.20215349 [kcal/mol]    -419.24581022 [kJ/mol]
  --------------------------------------------------------------------------------------------------------

*** Psi4 exiting successfully. Buy a developer a beer!
