                               Psi4 1.8.2 release

  ==> Input File <==

--------------------------------------------------------------------------
MEMORY 60 GB

molecule dimer {
-1 1
F      0.000000     0.000000     0.000000
--
0 1
O     -0.080310    -1.847083     2.022993
H      0.457360    -2.626850     1.740577
H      0.018614    -1.169433     1.294985
O      2.837448     0.327763    -0.543030
H      1.880268     0.381752    -0.427617
H      3.126366     1.066889    -0.006077
O     -2.870208     0.106987    -0.242889
H     -1.947930     0.074098    -0.240484
H     -3.032889     0.359006     0.686018
O     -0.565191    -2.497966    -1.410818
H     -0.439203    -1.753445    -0.804045
H     -1.324202    -3.032814    -1.079231
O      0.554201     1.968228     1.715688
H     -0.376763     2.281724     1.957626
H      0.367929     1.318127     1.000096

units ang
no_reorient
no_com
symmetry c1
}

set {
basis        aug-cc-pVTZ
scf_type     df
}

energy("sapt2+")
--------------------------------------------------------------------------

  //              Dimer HF             //
    Molecular point group: c1
  Charge       = -1
  Multiplicity = 1
  Basis Set: AUG-CC-PVTZ
    Blend: AUG-CC-PVTZ
  Basis Set: (AUG-CC-PVTZ AUX)
    Blend: AUG-CC-PVTZ-JKFIT
  @DF-RHF Final Energy:  -479.85940311287641
    Total Energy =                       -479.8594031128764072
 Dipole X            :          3.6501499           -4.2763179           -0.6261680
 Dipole Y            :         35.8868444          -35.2197971            0.6670473
 Dipole Z            :        -30.8030231           31.0999787            0.2969556
 Magnitude           :                                                    0.9618842
  //            Monomer A HF           //
    Molecular point group: c1
  Multiplicity = 1
  Basis Set: AUG-CC-PVTZ
    Blend: AUG-CC-PVTZ
  Basis Set: (AUG-CC-PVTZ AUX)
    Blend: AUG-CC-PVTZ-JKFIT
  @DF-RHF Final Energy:   -99.45111654872463
    Total Energy =                        -99.4511165487246274
  //            Monomer B HF           //
    Molecular point group: c1

    Geometry (in Angstrom), charge = 0, multiplicity = 1:

       Center              X                  Y                   Z               Mass
    ------------   -----------------  -----------------  -----------------  -----------------
      Gh(F)           0.000000000000     0.000000000000     0.000000000000    18.998403162730
         O           -0.080310000000    -1.847083000000     2.022993000000    15.994914619570
         H            0.457360000000    -2.626850000000     1.740577000000     1.007825032230
         H            0.018614000000    -1.169433000000     1.294985000000     1.007825032230
         O            2.837448000000     0.327763000000    -0.543030000000    15.994914619570
         H            1.880268000000     0.381752000000    -0.427617000000     1.007825032230
         H            3.126366000000     1.066889000000    -0.006077000000     1.007825032230
         O           -2.870208000000     0.106987000000    -0.242889000000    15.994914619570
         H           -1.947930000000     0.074098000000    -0.240484000000     1.007825032230
         H           -3.032889000000     0.359006000000     0.686018000000     1.007825032230
         O           -0.565191000000    -2.497966000000    -1.410818000000    15.994914619570
         H           -0.439203000000    -1.753445000000    -0.804045000000     1.007825032230
         H           -1.324202000000    -3.032814000000    -1.079231000000     1.007825032230
         O            0.554201000000     1.968228000000     1.715688000000    15.994914619570
         H           -0.376763000000     2.281724000000     1.957626000000     1.007825032230
         H            0.367929000000     1.318127000000     1.000096000000     1.007825032230

  Charge       = 0
  Multiplicity = 1
  Basis Set: AUG-CC-PVTZ
    Blend: AUG-CC-PVTZ
  Basis Set: (AUG-CC-PVTZ AUX)
    Blend: AUG-CC-PVTZ-JKFIT

    Orbital Energies [Eh]
    ---------------------

    Doubly Occupied:

       1A    -20.609707     2A    -20.598092     3A    -20.593841
       4A    -20.584121     5A    -20.583068     6A     -1.388047
       7A     -1.370104     8A     -1.366733     9A     -1.360329
      10A     -1.355873    11A     -0.740864    12A     -0.731865
      13A     -0.727849    14A     -0.723364    15A     -0.719681
      16A     -0.620930    17A     -0.614489    18A     -0.603627
      19A     -0.601813    20A     -0.587665    21A     -0.541789
      22A     -0.538064    23A     -0.532059    24A     -0.523891
      25A     -0.520965

  @DF-RHF Final Energy:  -380.27277998198628

   => Energetics <=

    Nuclear Repulsion Energy =            173.8651478627576239
    One-Electron Energy =                -869.9981905050454998
    Two-Electron Energy =                 315.8602626603015437
    Total Energy =                       -380.2727799819862753
 Dipole X            :          3.6291455           -4.2763179           -0.6471725
 Dipole Y            :         35.6903486          -35.2197971            0.4705515
 Dipole Z            :        -30.3221083           31.0999787            0.7778704
 Magnitude           :                                                    1.1159450

    SAPT Results
  --------------------------------------------------------------------------------------------------------
    Electrostatics               -160.45031284 [mEh]    -100.68409138 [kcal/mol]    -421.26223832 [kJ/mol]
      Elst10,r                   -160.17375247 [mEh]    -100.51054713 [kcal/mol]    -420.53612918 [kJ/mol]
      Elst12,r                     -0.27656037 [mEh]      -0.17354425 [kcal/mol]      -0.72610915 [kJ/mol]

    Exchange                      101.16188083 [mEh]      63.48003861 [kcal/mol]     265.60048153 [kJ/mol]
      Exch10                       76.20678420 [mEh]      47.82047905 [kcal/mol]     200.08088435 [kJ/mol]
      Exch10(S^2)                  76.81720711 [mEh]      48.20352521 [kcal/mol]     201.68354949 [kJ/mol]
      Exch11(S^2)                   1.51770420 [mEh]       0.95237376 [kcal/mol]       3.98473182 [kJ/mol]
      Exch12(S^2)                  23.43739243 [mEh]      14.70718579 [kcal/mol]      61.53486536 [kJ/mol]

    Induction                     -61.37972814 [mEh]     -38.51636091 [kcal/mol]    -161.15245403 [kJ/mol]
      Ind20,r                     -65.31294334 [mEh]     -40.98449070 [kcal/mol]    -171.47910910 [kJ/mol]
      Ind22                       -14.62789840 [mEh]      -9.17914483 [kcal/mol]     -38.40554196 [kJ/mol]
      Exch-Ind20,r                 21.37725234 [mEh]      13.41442837 [kcal/mol]      56.12596828 [kJ/mol]
      Exch-Ind22                    4.78778416 [mEh]       3.00437992 [kcal/mol]      12.57032557 [kJ/mol]
      delta HF,r (2)               -7.60392290 [mEh]      -4.77153366 [kcal/mol]     -19.96409681 [kJ/mol]

    Dispersion                    -30.24655166 [mEh]     -18.97999772 [kcal/mol]     -79.41231044 [kJ/mol]
      Disp20                      -28.70713326 [mEh]     -18.01399809 [kcal/mol]     -75.37056800 [kJ/mol]
      Disp21                        0.55340065 [mEh]       0.34726415 [kcal/mol]       1.45295320 [kJ/mol]
      Disp22 (SDQ)                 -3.47002329 [mEh]      -2.17747249 [kcal/mol]      -9.11054488 [kJ/mol]
      Disp22 (T)                   -5.34755267 [mEh]      -3.35563996 [kcal/mol]     -14.03999759 [kJ/mol]
      Est. Disp22 (T)              -6.23888669 [mEh]      -3.91496050 [kcal/mol]     -16.38019475 [kJ/mol]
      Exch-Disp20                   7.61609093 [mEh]       4.77916921 [kcal/mol]      19.99604399 [kJ/mol]

  Total HF                       -135.50658217 [mEh]     -85.03166407 [kcal/mol]    -355.77248246 [kJ/mol]
  Total SAPT0                    -156.59762450 [mEh]     -98.26649294 [kcal/mol]    -411.14700647 [kJ/mol]
  Total SAPT2                    -141.75920248 [mEh]     -88.95524255 [kcal/mol]    -372.18873483 [kJ/mol]
  Total SAPT2+                   -150.91471181 [mEh]     -94.70041139 [kcal/mol]    -396.22652126 [kJ/mol]

  Special recipe for scaled SAPT0 (see Manual):
    Electrostatics sSAPT0        -160.17375247 [mEh]    -100.51054713 [kcal/mol]    -420.53612918 [kJ/mol]
    Exchange sSAPT0                76.20678420 [mEh]      47.82047905 [kcal/mol]     200.08088435 [kJ/mol]
    Induction sSAPT0              -52.04519378 [mEh]     -32.65885216 [kcal/mol]    -136.64463745 [kJ/mol]
    Dispersion sSAPT0             -21.27116569 [mEh]     -13.34785799 [kcal/mol]     -55.84743781 [kJ/mol]
  Total sSAPT0                   -157.28332774 [mEh]     -98.69677822 [kcal/mol]    -412.94732009 [kJ/mol]
  --------------------------------------------------------------------------------------------------------

*** Psi4 exiting successfully. Buy a developer a beer!
