                               Psi4 1.8.2 release

  ==> Input File <==

--------------------------------------------------------------------------
MEMORY 60 GB

molecule dimer {
-1 1
F      0.000000     0.000000     0.000000
--
0 1
O     -0.533187     2.775168     0.632670
H      0.295886     3.282857     0.735170
H     -0.295187     1.845584     0.468372
O      1.234959     1.939079    -1.505495
H      0.841673     1.153378    -1.117670
H      1.897476     2.286047    -0.880775
O     -0.240420    -2.398413     1.233884
H     -0.215194    -1.544907     0.708591
H     -0.201083    -3.097122     0.599028
O     -2.770068     0.194255    -0.484586
H     -1.879200     0.202821    -0.161510
H     -3.260491    -0.522595    -0.053105
O     -0.063457    -1.551951    -2.197817
H      0.007654    -0.846794    -1.528243
H     -0.969421    -2.020789    -2.142271

units ang
no_reorient
no_com
symmetry c1
}

set {
basis        aug-cc-pVTZ
scf_type     df
}

energy("sapt2+")
--------------------------------------------------------------------------

  //              Dimer HF             //
    Molecular point group: c1
  Charge       = -1
  Multiplicity = 1
  Basis Set: AUG-CC-PVTZ
    Blend: AUG-CC-PVTZ
  Basis Set: (AUG-CC-PVTZ AUX)
    Blend: AUG-CC-PVTZ-JKFIT
  @DF-RHF Final Energy:  -479.85024069384872
    Total Energy =                       -479.8502406938487184
 Dipole X            :         43.8660594          -43.0012301            0.8648293
 Dipole Y            :        -16.5356971           15.8804722           -0.6552249
 Dipole Z            :         42.4992360          -41.4665722            1.0326638
 Magnitude           :                                                    1.4978798
  //            Monomer A HF           //
    Molecular point group: c1
  Multiplicity = 1
  Basis Set: AUG-CC-PVTZ
    Blend: AUG-CC-PVTZ
  Basis Set: (AUG-CC-PVTZ AUX)
    Blend: AUG-CC-PVTZ-JKFIT
  @DF-RHF Final Energy:   -99.45112117348003
    Total Energy =                        -99.4511211734800327
  //            Monomer B HF           //
    Molecular point group: c1

    Geometry (in Angstrom), charge = 0, multiplicity = 1:

       Center              X                  Y                   Z               Mass
    ------------   -----------------  -----------------  -----------------  -----------------
      Gh(F)           0.000000000000     0.000000000000     0.000000000000    18.998403162730
         O           -0.533187000000     2.775168000000     0.632670000000    15.994914619570
         H            0.295886000000     3.282857000000     0.735170000000     1.007825032230
         H           -0.295187000000     1.845584000000     0.468372000000     1.007825032230
         O            1.234959000000     1.939079000000    -1.505495000000    15.994914619570
         H            0.841673000000     1.153378000000    -1.117670000000     1.007825032230
         H            1.897476000000     2.286047000000    -0.880775000000     1.007825032230
         O           -0.240420000000    -2.398413000000     1.233884000000    15.994914619570
         H           -0.215194000000    -1.544907000000     0.708591000000     1.007825032230
         H           -0.201083000000    -3.097122000000     0.599028000000     1.007825032230
         O           -2.770068000000     0.194255000000    -0.484586000000    15.994914619570
         H           -1.879200000000     0.202821000000    -0.161510000000     1.007825032230
         H           -3.260491000000    -0.522595000000    -0.053105000000     1.007825032230
         O           -0.063457000000    -1.551951000000    -2.197817000000    15.994914619570
         H            0.007654000000    -0.846794000000    -1.528243000000     1.007825032230
         H           -0.969421000000    -2.020789000000    -2.142271000000     1.007825032230

  Charge       = 0
  Multiplicity = 1
  Basis Set: AUG-CC-PVTZ
    Blend: AUG-CC-PVTZ
  Basis Set: (AUG-CC-PVTZ AUX)
    Blend: AUG-CC-PVTZ-JKFIT

    Orbital Energies [Eh]
    ---------------------

    Doubly Occupied:

       1A    -20.596986     2A    -20.593255     3A    -20.590936
       4A    -20.585651     5A    -20.579268     6A     -1.372697
       7A     -1.370202     8A     -1.368715     9A     -1.355752
      10A     -1.352403    11A     -0.752683    12A     -0.745470
      13A     -0.737409    14A     -0.731130    15A     -0.722921
      16A     -0.606305    17A     -0.604221    18A     -0.593557
      19A     -0.587521    20A     -0.583065    21A     -0.539705
      22A     -0.532621    23A     -0.530667    24A     -0.526726
      25A     -0.507590

  @DF-RHF Final Energy:  -380.26329514532802

   => Energetics <=

    Nuclear Repulsion Energy =            180.0935875939844664
    One-Electron Energy =                -882.5788521072945514
    Two-Electron Energy =                 322.2219693679820693
    Total Energy =                       -380.2632951453280157
 Dipole X            :         43.5615098          -43.0012301            0.5602797
 Dipole Y            :        -16.6026969           15.8804722           -0.7222247
 Dipole Z            :         42.1557970          -41.4665722            0.6892248
 Magnitude           :                                                    1.1447938

    SAPT Results
  --------------------------------------------------------------------------------------------------------
    Electrostatics               -168.31461804 [mEh]    -105.61901739 [kcal/mol]    -441.90996878 [kJ/mol]
      Elst10,r                   -167.27887630 [mEh]    -104.96907964 [kcal/mol]    -439.19062923 [kJ/mol]
      Elst12,r                     -1.03574173 [mEh]      -0.64993775 [kcal/mol]      -2.71933955 [kJ/mol]

    Exchange                      113.78250484 [mEh]      71.39959974 [kcal/mol]     298.73592531 [kJ/mol]
      Exch10                       86.01994713 [mEh]      53.97833176 [kcal/mol]     225.84534007 [kJ/mol]
      Exch10(S^2)                  86.73755835 [mEh]      54.42863959 [kcal/mol]     227.72942806 [kJ/mol]
      Exch11(S^2)                   1.64061906 [mEh]       1.02950400 [kcal/mol]       4.30744474 [kJ/mol]
      Exch12(S^2)                  26.12193866 [mEh]      16.39176398 [kcal/mol]      68.58314050 [kJ/mol]

    Induction                     -65.24226478 [mEh]     -40.94013924 [kcal/mol]    -171.29354258 [kJ/mol]
      Ind20,r                     -70.66549136 [mEh]     -44.34326530 [kcal/mol]    -185.53222200 [kJ/mol]
      Ind22                       -16.23786032 [mEh]     -10.18941118 [kcal/mol]     -42.63249639 [kJ/mol]
      Exch-Ind20,r                 24.20107794 [mEh]      15.18640568 [kcal/mol]      63.53992138 [kJ/mol]
      Exch-Ind22                    5.56104140 [mEh]       3.48960616 [kcal/mol]      14.60051219 [kJ/mol]
      delta HF,r (2)               -8.10103245 [mEh]      -5.08347461 [kcal/mol]     -21.26925776 [kJ/mol]

    Dispersion                    -32.68637767 [mEh]     -20.51101165 [kcal/mol]     -85.81807275 [kJ/mol]
      Disp20                      -31.47736083 [mEh]     -19.75234213 [kcal/mol]     -82.64379949 [kJ/mol]
      Disp21                        0.77202337 [mEh]       0.48445198 [kcal/mol]       2.02694707 [kJ/mol]
      Disp22 (SDQ)                 -3.75433408 [mEh]      -2.35588020 [kcal/mol]      -9.85700276 [kJ/mol]
      Disp22 (T)                   -5.85478780 [mEh]      -3.67393481 [kcal/mol]     -15.37174324 [kJ/mol]
      Est. Disp22 (T)              -6.79175669 [mEh]      -4.26189167 [kcal/mol]     -17.83175473 [kJ/mol]
      Exch-Disp20                   8.56505056 [mEh]       5.37465037 [kcal/mol]      22.48753715 [kJ/mol]

  Total HF                       -135.82437504 [mEh]     -85.23108211 [kcal/mol]    -356.60684754 [kJ/mol]
  Total SAPT0                    -158.73668531 [mEh]     -99.60877387 [kcal/mol]    -416.76310987 [kJ/mol]
  Total SAPT2                    -142.68668825 [mEh]     -89.53724866 [kcal/mol]    -374.62384838 [kJ/mol]
  Total SAPT2+                   -152.46075565 [mEh]     -95.67056855 [kcal/mol]    -400.28565880 [kJ/mol]

  Special recipe for scaled SAPT0 (see Manual):
    Electrostatics sSAPT0        -167.27887630 [mEh]    -104.96907964 [kcal/mol]    -439.19062923 [kJ/mol]
    Exchange sSAPT0                86.01994713 [mEh]      53.97833176 [kcal/mol]     225.84534007 [kJ/mol]
    Induction sSAPT0              -55.16116282 [mEh]     -34.61415225 [kcal/mol]    -144.82561303 [kJ/mol]
    Dispersion sSAPT0             -23.12314162 [mEh]     -14.50999043 [kcal/mol]     -60.70979996 [kJ/mol]
  Total sSAPT0                   -159.54323361 [mEh]    -100.11489057 [kcal/mol]    -418.88070215 [kJ/mol]
  --------------------------------------------------------------------------------------------------------

*** Psi4 exiting successfully. Buy a developer a beer!
