                               Psi4 1.8.2 release

  ==> Input File <==

--------------------------------------------------------------------------
MEMORY 60 GB

molecule dimer {
-1 1
F      0.000000     0.000000     0.000000
--
0 1
O      2.576276    -1.171167     0.788022
H      1.776637    -0.888891     0.309615
H      2.425614    -0.738698     1.637671
O     -1.663160     2.156415    -0.956164
H     -1.185016     1.364115    -0.671662
H     -0.910896     2.670637    -1.306306
O     -0.927145    -2.816455     0.085393
H     -0.124316    -3.201248    -0.375297
H     -0.626505    -1.865791     0.240029
O      0.340789    -1.534314    -2.302097
H     -0.428489    -1.936195    -2.722286
H      0.080620    -0.911681    -1.592949
O      1.519278     2.030340     1.236737
H      1.945345     2.457646     0.452984
H      0.951977     1.348919     0.894026

units ang
no_reorient
no_com
symmetry c1
}

set {
basis        aug-cc-pVTZ
scf_type     df
}

energy("sapt2+")
--------------------------------------------------------------------------

  //              Dimer HF             //
    Molecular point group: c1
  Charge       = -1
  Multiplicity = 1
  Basis Set: AUG-CC-PVTZ
    Blend: AUG-CC-PVTZ
  Basis Set: (AUG-CC-PVTZ AUX)
    Blend: AUG-CC-PVTZ-JKFIT
  @DF-RHF Final Energy:  -479.86024119430743
    Total Energy =                       -479.8602411943074344
 Dipole X            :        -35.3979898           35.2873756           -0.1106142
 Dipole Y            :         24.1407608          -23.3997889            0.7409719
 Dipole Z            :         22.9306023          -23.2796250           -0.3490227
 Magnitude           :                                                    0.8264937
  //            Monomer A HF           //
    Molecular point group: c1
  Multiplicity = 1
  Basis Set: AUG-CC-PVTZ
    Blend: AUG-CC-PVTZ
  Basis Set: (AUG-CC-PVTZ AUX)
    Blend: AUG-CC-PVTZ-JKFIT
  @DF-RHF Final Energy:   -99.45108808034476
    Total Energy =                        -99.4510880803447606
  //            Monomer B HF           //
    Molecular point group: c1

    Geometry (in Angstrom), charge = 0, multiplicity = 1:

       Center              X                  Y                   Z               Mass
    ------------   -----------------  -----------------  -----------------  -----------------
      Gh(F)           0.000000000000     0.000000000000     0.000000000000    18.998403162730
         O            2.576276000000    -1.171167000000     0.788022000000    15.994914619570
         H            1.776637000000    -0.888891000000     0.309615000000     1.007825032230
         H            2.425614000000    -0.738698000000     1.637671000000     1.007825032230
         O           -1.663160000000     2.156415000000    -0.956164000000    15.994914619570
         H           -1.185016000000     1.364115000000    -0.671662000000     1.007825032230
         H           -0.910896000000     2.670637000000    -1.306306000000     1.007825032230
         O           -0.927145000000    -2.816455000000     0.085393000000    15.994914619570
         H           -0.124316000000    -3.201248000000    -0.375297000000     1.007825032230
         H           -0.626505000000    -1.865791000000     0.240029000000     1.007825032230
         O            0.340789000000    -1.534314000000    -2.302097000000    15.994914619570
         H           -0.428489000000    -1.936195000000    -2.722286000000     1.007825032230
         H            0.080620000000    -0.911681000000    -1.592949000000     1.007825032230
         O            1.519278000000     2.030340000000     1.236737000000    15.994914619570
         H            1.945345000000     2.457646000000     0.452984000000     1.007825032230
         H            0.951977000000     1.348919000000     0.894026000000     1.007825032230

  Charge       = 0
  Multiplicity = 1
  Basis Set: AUG-CC-PVTZ
    Blend: AUG-CC-PVTZ
  Basis Set: (AUG-CC-PVTZ AUX)
    Blend: AUG-CC-PVTZ-JKFIT

    Orbital Energies [Eh]
    ---------------------

    Doubly Occupied:

       1A    -20.599148     2A    -20.597856     3A    -20.595197
       4A    -20.589151     5A    -20.587772     6A     -1.377669
       7A     -1.375145     8A     -1.372602     9A     -1.366831
      10A     -1.345026    11A     -0.755272    12A     -0.745940
      13A     -0.724021    14A     -0.718619    15A     -0.699491
      16A     -0.618322    17A     -0.609950    18A     -0.606146
      19A     -0.602523    20A     -0.593760    21A     -0.541990
      22A     -0.541041    23A     -0.534402    24A     -0.524316
      25A     -0.513979

  @DF-RHF Final Energy:  -380.27219096406913

   => Energetics <=

    Nuclear Repulsion Energy =            174.5499435584153218
    One-Electron Energy =                -871.3719251764505316
    Two-Electron Energy =                 316.5497906539661130
    Total Energy =                       -380.2721909640691251
 Dipole X            :        -35.1280971           35.2873756            0.1592785
 Dipole Y            :         23.9980245          -23.3997889            0.5982356
 Dipole Z            :         22.6833945          -23.2796250           -0.5962304
 Magnitude           :                                                    0.8595035

    SAPT Results
  --------------------------------------------------------------------------------------------------------
    Electrostatics               -151.90162928 [mEh]     -95.31971146 [kcal/mol]    -398.81767273 [kJ/mol]
      Elst10,r                   -152.51890059 [mEh]     -95.70705505 [kcal/mol]    -400.43831832 [kJ/mol]
      Elst12,r                      0.61727130 [mEh]       0.38734359 [kcal/mol]       1.62064559 [kJ/mol]

    Exchange                       81.47773781 [mEh]      51.12805238 [kcal/mol]     213.91977116 [kJ/mol]
      Exch10                       59.93870246 [mEh]      37.61210364 [kcal/mol]     157.36904163 [kJ/mol]
      Exch10(S^2)                  60.40516145 [mEh]      37.90481107 [kcal/mol]     158.59372953 [kJ/mol]
      Exch11(S^2)                   1.38486133 [mEh]       0.86901360 [kcal/mol]       3.63595291 [kJ/mol]
      Exch12(S^2)                  20.15417403 [mEh]      12.64693514 [kcal/mol]      52.91477662 [kJ/mol]

    Induction                     -53.12252334 [mEh]     -33.33488667 [kcal/mol]    -139.47316581 [kJ/mol]
      Ind20,r                     -55.56409592 [mEh]     -34.86699659 [kcal/mol]    -145.88351373 [kJ/mol]
      Ind22                       -12.48025674 [mEh]      -7.83147934 [kcal/mol]     -32.76690957 [kJ/mol]
      Exch-Ind20,r                 16.64967556 [mEh]      10.44782915 [kcal/mol]      43.71371716 [kJ/mol]
      Exch-Ind22                    3.73968517 [mEh]       2.34668788 [kcal/mol]       9.81854207 [kJ/mol]
      delta HF,r (2)               -5.46753141 [mEh]      -3.43092776 [kcal/mol]     -14.35500174 [kJ/mol]

    Dispersion                    -26.97064716 [mEh]     -16.92433661 [kcal/mol]     -70.81142436 [kJ/mol]
      Disp20                      -24.90305005 [mEh]     -15.62689983 [kcal/mol]     -65.38294891 [kJ/mol]
      Disp21                        0.27506128 [mEh]       0.17260356 [kcal/mol]       0.72217330 [kJ/mol]
      Disp22 (SDQ)                 -3.16349100 [mEh]      -1.98512057 [kcal/mol]      -8.30574448 [kJ/mol]
      Disp22 (T)                   -4.71316404 [mEh]      -2.95755509 [kcal/mol]     -12.37441049 [kJ/mol]
      Est. Disp22 (T)              -5.54417225 [mEh]      -3.47902061 [kcal/mol]     -14.55622224 [kJ/mol]
      Exch-Disp20                   6.36500486 [mEh]       3.99410085 [kcal/mol]      16.71131796 [kJ/mol]

  Total HF                       -136.96214989 [mEh]     -85.94504661 [kcal/mol]    -359.59407500 [kJ/mol]
  Total SAPT0                    -155.50019508 [mEh]     -97.57784559 [kcal/mol]    -408.26570595 [kJ/mol]
  Total SAPT2                    -142.08446000 [mEh]     -89.15934473 [kcal/mol]    -373.04269833 [kJ/mol]
  Total SAPT2+                   -150.51706197 [mEh]     -94.45088235 [kcal/mol]    -395.18249175 [kJ/mol]

  Special recipe for scaled SAPT0 (see Manual):
    Electrostatics sSAPT0        -152.51890059 [mEh]     -95.70705505 [kcal/mol]    -400.43831832 [kJ/mol]
    Exchange sSAPT0                59.93870246 [mEh]      37.61210364 [kcal/mol]     157.36904163 [kJ/mol]
    Induction sSAPT0              -44.76469580 [mEh]     -28.09027071 [kcal/mol]    -117.52969264 [kJ/mol]
    Dispersion sSAPT0             -18.68436442 [mEh]     -11.72461568 [kcal/mol]     -49.05579202 [kJ/mol]
  Total sSAPT0                   -156.02925835 [mEh]     -97.90983780 [kcal/mol]    -409.65476135 [kJ/mol]
  --------------------------------------------------------------------------------------------------------

*** Psi4 exiting successfully. Buy a developer a beer!
