                               Psi4 1.8.2 release

  ==> Input File <==

--------------------------------------------------------------------------
MEMORY 60 GB

molecule dimer {
-1 1
F      0.000000     0.000000     0.000000
--
0 1
O     -0.318921     0.096636     2.907600
H     -0.209107     0.035971     1.908927
H      0.113370     0.903125     3.133819
O     -1.624836     2.111763    -0.674676
H     -1.136960     1.329449    -0.328407
H     -1.463411     2.236115    -1.611825
O      1.830939     2.016220     1.109031
H      1.608996     1.925541     2.025625
H      1.143692     1.515686     0.601146
O      1.707563     0.850050    -2.001594
H      1.699145     1.727491    -2.482621
H      0.964886     0.694880    -1.390422
O     -2.207657    -1.687922    -0.160566
H     -1.466453    -1.044049    -0.029828
H     -3.021094    -1.262992     0.163198

units ang
no_reorient
no_com
symmetry c1
}

set {
basis        aug-cc-pVTZ
scf_type     df
}

energy("sapt2+")
--------------------------------------------------------------------------

  //              Dimer HF             //
    Molecular point group: c1
  Charge       = -1
  Multiplicity = 1
  Basis Set: AUG-CC-PVTZ
    Blend: AUG-CC-PVTZ
  Basis Set: (AUG-CC-PVTZ AUX)
    Blend: AUG-CC-PVTZ-JKFIT
  @DF-RHF Final Energy:  -479.85153567193578
    Total Energy =                       -479.8515356719357783
 Dipole X            :         12.4722777          -12.6049117           -0.1326340
 Dipole Y            :        -66.0906195           66.4336867            0.3430672
 Dipole Z            :        -21.9499596           21.5957372           -0.3542223
 Magnitude           :                                                    0.5106470
  //            Monomer A HF           //
    Molecular point group: c1
  Multiplicity = 1
  Basis Set: AUG-CC-PVTZ
    Blend: AUG-CC-PVTZ
  Basis Set: (AUG-CC-PVTZ AUX)
    Blend: AUG-CC-PVTZ-JKFIT
  @DF-RHF Final Energy:   -99.45110686370529
    Total Energy =                        -99.4511068637052915
  //            Monomer B HF           //
    Molecular point group: c1

    Geometry (in Angstrom), charge = 0, multiplicity = 1:

       Center              X                  Y                   Z               Mass
    ------------   -----------------  -----------------  -----------------  -----------------
      Gh(F)           0.000000000000     0.000000000000     0.000000000000    18.998403162730
         O           -0.318921000000     0.096636000000     2.907600000000    15.994914619570
         H           -0.209107000000     0.035971000000     1.908927000000     1.007825032230
         H            0.113370000000     0.903125000000     3.133819000000     1.007825032230
         O           -1.624836000000     2.111763000000    -0.674676000000    15.994914619570
         H           -1.136960000000     1.329449000000    -0.328407000000     1.007825032230
         H           -1.463411000000     2.236115000000    -1.611825000000     1.007825032230
         O            1.830939000000     2.016220000000     1.109031000000    15.994914619570
         H            1.608996000000     1.925541000000     2.025625000000     1.007825032230
         H            1.143692000000     1.515686000000     0.601146000000     1.007825032230
         O            1.707563000000     0.850050000000    -2.001594000000    15.994914619570
         H            1.699145000000     1.727491000000    -2.482621000000     1.007825032230
         H            0.964886000000     0.694880000000    -1.390422000000     1.007825032230
         O           -2.207657000000    -1.687922000000    -0.160566000000    15.994914619570
         H           -1.466453000000    -1.044049000000    -0.029828000000     1.007825032230
         H           -3.021094000000    -1.262992000000     0.163198000000     1.007825032230

  Charge       = 0
  Multiplicity = 1
  Basis Set: AUG-CC-PVTZ
    Blend: AUG-CC-PVTZ
  Basis Set: (AUG-CC-PVTZ AUX)
    Blend: AUG-CC-PVTZ-JKFIT

    Orbital Energies [Eh]
    ---------------------

    Doubly Occupied:

       1A    -20.604139     2A    -20.601249     3A    -20.593971
       4A    -20.590263     5A    -20.588863     6A     -1.379238
       7A     -1.377997     8A     -1.371384     9A     -1.357584
      10A     -1.354991    11A     -0.761789    12A     -0.749682
      13A     -0.741241    14A     -0.734164    15A     -0.727485
      16A     -0.621933    17A     -0.606451    18A     -0.593803
      19A     -0.591640    20A     -0.578983    21A     -0.544125
      22A     -0.539527    23A     -0.532541    24A     -0.526074
      25A     -0.525011

  @DF-RHF Final Energy:  -380.26225422292163

   => Energetics <=

    Nuclear Repulsion Energy =            177.0403560235279485
    One-Electron Energy =                -876.2169598927974903
    Two-Electron Energy =                 318.9143496463479437
    Total Energy =                       -380.2622542229216265
 Dipole X            :         12.2372029          -12.6049117           -0.3677088
 Dipole Y            :        -65.5180574           66.4336867            0.9156293
 Dipole Z            :        -21.8516911           21.5957372           -0.2559539
 Magnitude           :                                                    1.0193621

    SAPT Results
  --------------------------------------------------------------------------------------------------------
    Electrostatics               -158.68899704 [mEh]     -99.57884903 [kcal/mol]    -416.63790434 [kJ/mol]
      Elst10,r                   -158.35922918 [mEh]     -99.37191657 [kcal/mol]    -415.77209894 [kJ/mol]
      Elst12,r                     -0.32976786 [mEh]      -0.20693246 [kcal/mol]      -0.86580539 [kJ/mol]

    Exchange                       98.12862254 [mEh]      61.57664029 [kcal/mol]     257.63666298 [kJ/mol]
      Exch10                       73.38828906 [mEh]      46.05184665 [kcal/mol]     192.68092639 [kJ/mol]
      Exch10(S^2)                  74.01498340 [mEh]      46.44510328 [kcal/mol]     194.32631214 [kJ/mol]
      Exch11(S^2)                   1.60104565 [mEh]       1.00467131 [kcal/mol]       4.20354477 [kJ/mol]
      Exch12(S^2)                  23.13928783 [mEh]      14.52012233 [kcal/mol]      60.75219182 [kJ/mol]

    Induction                     -63.24135014 [mEh]     -39.68454635 [kcal/mol]    -166.04014191 [kJ/mol]
      Ind20,r                     -65.45934544 [mEh]     -41.07635941 [kcal/mol]    -171.86348778 [kJ/mol]
      Ind22                       -14.49094675 [mEh]      -9.09320637 [kcal/mol]     -38.04597545 [kJ/mol]
      Exch-Ind20,r                 20.11644223 [mEh]      12.62325808 [kcal/mol]      52.81571180 [kJ/mol]
      Exch-Ind22                    4.45324180 [mEh]       2.79445142 [kcal/mol]      11.69198473 [kJ/mol]
      delta HF,r (2)               -7.86074198 [mEh]      -4.93269006 [kcal/mol]     -20.63837521 [kJ/mol]

    Dispersion                    -29.95899102 [mEh]     -18.79955069 [kcal/mol]     -78.65732009 [kJ/mol]
      Disp20                      -28.24427240 [mEh]     -17.72354851 [kcal/mol]     -74.15532698 [kJ/mol]
      Disp21                        0.53267082 [mEh]       0.33425598 [kcal/mol]       1.39852703 [kJ/mol]
      Disp22 (SDQ)                 -3.41424618 [mEh]      -2.14247182 [kcal/mol]      -8.96410211 [kJ/mol]
      Disp22 (T)                   -5.32678638 [mEh]      -3.34260892 [kcal/mol]     -13.98547571 [kJ/mol]
      Est. Disp22 (T)              -6.20052666 [mEh]      -3.89088922 [kcal/mol]     -16.27948050 [kJ/mol]
      Exch-Disp20                   7.36738341 [mEh]       4.62310288 [kcal/mol]      19.34306247 [kJ/mol]

  Total HF                       -138.17458531 [mEh]     -86.70586132 [kcal/mol]    -362.77732375 [kJ/mol]
  Total SAPT0                    -159.05147431 [mEh]     -99.80630694 [kcal/mol]    -417.58958826 [kJ/mol]
  Total SAPT2                    -144.67861364 [mEh]     -90.78720071 [kcal/mol]    -379.85364778 [kJ/mol]
  Total SAPT2+                   -153.76071566 [mEh]     -96.48630577 [kcal/mol]    -403.69870336 [kJ/mol]

  Special recipe for scaled SAPT0 (see Manual):
    Electrostatics sSAPT0        -158.35922918 [mEh]     -99.37191657 [kcal/mol]    -415.77209894 [kJ/mol]
    Exchange sSAPT0                73.38828906 [mEh]      46.05184665 [kcal/mol]     192.68092639 [kJ/mol]
    Induction sSAPT0              -53.71031629 [mEh]     -33.70373231 [kcal/mol]    -141.01641599 [kJ/mol]
    Dispersion sSAPT0             -21.06245065 [mEh]     -13.21688732 [kcal/mol]     -55.29945656 [kJ/mol]
  Total sSAPT0                   -159.74370706 [mEh]    -100.24068956 [kcal/mol]    -419.40704511 [kJ/mol]
  --------------------------------------------------------------------------------------------------------

*** Psi4 exiting successfully. Buy a developer a beer!
