                               Psi4 1.8.2 release

  ==> Input File <==

--------------------------------------------------------------------------
MEMORY 60 GB

molecule dimer {
-1 1
F      0.000000     0.000000     0.000000
--
0 1
O     -0.207769    -2.327129     1.239569
H      0.037713    -3.149829     0.838322
H     -0.081193    -1.636015     0.550989
O     -2.599898    -0.694839    -0.679029
H     -2.709680    -0.858637    -1.571457
H     -1.656530    -0.607954    -0.409434
O      1.812665     1.083834     2.219277
H      1.153673     0.568273     1.755293
H      1.370089     1.213940     3.097476
O      2.512982    -1.496631    -0.619434
H      1.794318    -0.888816    -0.358592
H      2.943913    -1.115172    -1.446926
O     -0.703861     1.904262    -1.805602
H     -1.312640     2.645681    -1.719120
H     -0.646566     1.565853    -0.948304

units ang
no_reorient
no_com
symmetry c1
}

set {
basis        aug-cc-pVTZ
scf_type     df
}

energy("sapt2+")
--------------------------------------------------------------------------

  //              Dimer HF             //
    Molecular point group: c1
  Charge       = -1
  Multiplicity = 1
  Basis Set: AUG-CC-PVTZ
    Blend: AUG-CC-PVTZ
  Basis Set: (AUG-CC-PVTZ AUX)
    Blend: AUG-CC-PVTZ-JKFIT
  @DF-RHF Final Energy:  -479.84415437223629
    Total Energy =                       -479.8441543722362894
 Dipole X            :        -14.3632650           13.9954043           -0.3678607
 Dipole Y            :         28.2101162          -27.4136900            0.7964263
 Dipole Z            :         -5.5753554            4.9633562           -0.6119992
 Magnitude           :                                                    1.0696538
  //            Monomer A HF           //
    Molecular point group: c1
  Multiplicity = 1
  Basis Set: AUG-CC-PVTZ
    Blend: AUG-CC-PVTZ
  Basis Set: (AUG-CC-PVTZ AUX)
    Blend: AUG-CC-PVTZ-JKFIT
  @DF-RHF Final Energy:   -99.45109975793123
    Total Energy =                        -99.4510997579312175
  //            Monomer B HF           //
    Molecular point group: c1

    Geometry (in Angstrom), charge = 0, multiplicity = 1:

       Center              X                  Y                   Z               Mass
    ------------   -----------------  -----------------  -----------------  -----------------
      Gh(F)           0.000000000000     0.000000000000     0.000000000000    18.998403162730
         O           -0.207769000000    -2.327129000000     1.239569000000    15.994914619570
         H            0.037713000000    -3.149829000000     0.838322000000     1.007825032230
         H           -0.081193000000    -1.636015000000     0.550989000000     1.007825032230
         O           -2.599898000000    -0.694839000000    -0.679029000000    15.994914619570
         H           -2.709680000000    -0.858637000000    -1.571457000000     1.007825032230
         H           -1.656530000000    -0.607954000000    -0.409434000000     1.007825032230
         O            1.812665000000     1.083834000000     2.219277000000    15.994914619570
         H            1.153673000000     0.568273000000     1.755293000000     1.007825032230
         H            1.370089000000     1.213940000000     3.097476000000     1.007825032230
         O            2.512982000000    -1.496631000000    -0.619434000000    15.994914619570
         H            1.794318000000    -0.888816000000    -0.358592000000     1.007825032230
         H            2.943913000000    -1.115172000000    -1.446926000000     1.007825032230
         O           -0.703861000000     1.904262000000    -1.805602000000    15.994914619570
         H           -1.312640000000     2.645681000000    -1.719120000000     1.007825032230
         H           -0.646566000000     1.565853000000    -0.948304000000     1.007825032230

  Charge       = 0
  Multiplicity = 1
  Basis Set: AUG-CC-PVTZ
    Blend: AUG-CC-PVTZ
  Basis Set: (AUG-CC-PVTZ AUX)
    Blend: AUG-CC-PVTZ-JKFIT

    Orbital Energies [Eh]
    ---------------------

    Doubly Occupied:

       1A    -20.585513     2A    -20.583254     3A    -20.580266
       4A    -20.580225     5A    -20.572972     6A     -1.377907
       7A     -1.365401     8A     -1.362872     9A     -1.356315
      10A     -1.348147    11A     -0.754879    12A     -0.740299
      13A     -0.733862    14A     -0.717923    15A     -0.710541
      16A     -0.605168    17A     -0.596582    18A     -0.595533
      19A     -0.585799    20A     -0.579561    21A     -0.532609
      22A     -0.525260    23A     -0.520451    24A     -0.517705
      25A     -0.513849

  @DF-RHF Final Energy:  -380.27912574239792

   => Energetics <=

    Nuclear Repulsion Energy =            172.3632294360675701
    One-Electron Energy =                -867.3989238770709562
    Two-Electron Energy =                 314.7565686986055198
    Total Energy =                       -380.2791257423979232
 Dipole X            :        -14.4339402           13.9954043           -0.4385360
 Dipole Y            :         27.8436799          -27.4136900            0.4299899
 Dipole Z            :         -5.5685706            4.9633562           -0.6052144
 Magnitude           :                                                    0.8622584

    SAPT Results
  --------------------------------------------------------------------------------------------------------
    Electrostatics               -135.98462006 [mEh]     -85.33163738 [kcal/mol]    -357.02757079 [kJ/mol]
      Elst10,r                   -134.09383733 [mEh]     -84.14515330 [kcal/mol]    -352.06332140 [kJ/mol]
      Elst12,r                     -1.89078273 [mEh]      -1.18648408 [kcal/mol]      -4.96424939 [kJ/mol]

    Exchange                       88.02330033 [mEh]      55.23545487 [kcal/mol]     231.10514318 [kJ/mol]
      Exch10                       66.33242085 [mEh]      41.62422250 [kcal/mol]     174.15574695 [kJ/mol]
      Exch10(S^2)                  66.50611990 [mEh]      41.73322030 [kcal/mol]     174.61179374 [kJ/mol]
      Exch11(S^2)                   0.94340790 [mEh]       0.59199739 [kcal/mol]       2.47691709 [kJ/mol]
      Exch12(S^2)                  20.74747158 [mEh]      13.01923498 [kcal/mol]      54.47247914 [kJ/mol]

    Induction                     -55.01850130 [mEh]     -34.52463080 [kcal/mol]    -144.45105526 [kJ/mol]
      Ind20,r                     -58.69643750 [mEh]     -36.83257061 [kcal/mol]    -154.10747542 [kJ/mol]
      Ind22                       -13.20375906 [mEh]      -8.28548390 [kcal/mol]     -34.66646463 [kJ/mol]
      Exch-Ind20,r                 19.34969855 [mEh]      12.14211916 [kcal/mol]      50.80262655 [kJ/mol]
      Exch-Ind22                    4.35271319 [mEh]       2.73136876 [kcal/mol]      11.42804690 [kJ/mol]
      delta HF,r (2)               -6.82071648 [mEh]      -4.28006421 [kcal/mol]     -17.90778866 [kJ/mol]

    Dispersion                    -27.14391086 [mEh]     -17.03306122 [kcal/mol]     -71.26632814 [kJ/mol]
      Disp20                      -25.56054486 [mEh]     -16.03948405 [kcal/mol]     -67.10920128 [kJ/mol]
      Disp21                        0.40682531 [mEh]       0.25528674 [kcal/mol]       1.06811970 [kJ/mol]
      Disp22 (SDQ)                 -3.03289758 [mEh]      -1.90317196 [kcal/mol]      -7.96287149 [kJ/mol]
      Disp22 (T)                   -4.69352502 [mEh]      -2.94523141 [kcal/mol]     -12.32284823 [kJ/mol]
      Est. Disp22 (T)              -5.50933767 [mEh]      -3.45716158 [kcal/mol]     -14.46476406 [kJ/mol]
      Exch-Disp20                   6.55204394 [mEh]       4.11146964 [kcal/mol]      17.20238899 [kJ/mol]

  Total HF                       -113.92887191 [mEh]     -71.49144646 [kcal/mol]    -299.12021198 [kJ/mol]
  Total SAPT0                    -132.93737283 [mEh]     -83.41946087 [kcal/mol]    -349.02702428 [kJ/mol]
  Total SAPT2                    -121.98832195 [mEh]     -76.54882772 [kcal/mol]    -320.28029517 [kJ/mol]
  Total SAPT2+                   -130.12373189 [mEh]     -81.65387453 [kcal/mol]    -341.63981102 [kJ/mol]

  Special recipe for scaled SAPT0 (see Manual):
    Electrostatics sSAPT0        -134.09383733 [mEh]     -84.14515330 [kcal/mol]    -352.06332140 [kJ/mol]
    Exchange sSAPT0                66.33242085 [mEh]      41.62422250 [kcal/mol]     174.15574695 [kJ/mol]
    Induction sSAPT0              -46.31867100 [mEh]     -29.06540487 [kcal/mol]    -121.60965396 [kJ/mol]
    Dispersion sSAPT0             -19.05970436 [mEh]     -11.96014505 [kcal/mol]     -50.04124690 [kJ/mol]
  Total sSAPT0                   -133.13979184 [mEh]     -83.54648072 [kcal/mol]    -349.55847532 [kJ/mol]
  --------------------------------------------------------------------------------------------------------

*** Psi4 exiting successfully. Buy a developer a beer!
