                               Psi4 1.8.2 release

  ==> Input File <==

--------------------------------------------------------------------------
MEMORY 60 GB

molecule dimer {
-1 1
F      0.000000     0.000000     0.000000
--
0 1
O      2.510030    -0.661941    -0.832182
H      3.047987     0.136114    -0.766474
H      1.651515    -0.398683    -0.437510
O     -1.861163     1.391541     1.823140
H     -1.395324     0.891965     1.132552
H     -2.167141     2.148676     1.326070
O     -0.069818    -1.825737     1.950594
H      0.658754    -2.446451     1.867536
H     -0.032357    -1.190493     1.210077
O      2.118804     1.277032     1.563138
H      2.238847     0.825714     2.421086
H      1.328717     0.912441     1.134542
O     -2.940937    -0.619005    -0.168957
H     -2.026060    -0.454747    -0.472925
H     -3.379101    -1.135452    -0.844734
O      0.534776     0.816487    -2.672079
H      0.728932     1.193376    -1.819618
H     -0.414644     0.967166    -2.819436

units ang
no_reorient
no_com
symmetry c1
}

set {
basis        aug-cc-pVTZ
scf_type     df
}

energy("sapt2+")
--------------------------------------------------------------------------

  //              Dimer HF             //
    Molecular point group: c1
  Charge       = -1
  Multiplicity = 1
  Basis Set: AUG-CC-PVTZ
    Blend: AUG-CC-PVTZ
  Basis Set: (AUG-CC-PVTZ AUX)
    Blend: AUG-CC-PVTZ-JKFIT
  @DF-RHF Final Energy:  -555.91507757228567
    Total Energy =                       -555.9150775722856679
 Dipole X            :         -5.3094304            4.8635144           -0.4459160
 Dipole Y            :         -8.0354014            8.4596273            0.4242259
 Dipole Z            :        -29.9590628           28.8001783           -1.1588845
 Magnitude           :                                                    1.3121821
  //            Monomer A HF           //
    Molecular point group: c1
  Multiplicity = 1
  Basis Set: AUG-CC-PVTZ
    Blend: AUG-CC-PVTZ
  Basis Set: (AUG-CC-PVTZ AUX)
    Blend: AUG-CC-PVTZ-JKFIT
  @DF-RHF Final Energy:   -99.45114663914114
    Total Energy =                        -99.4511466391411432
  //            Monomer B HF           //
    Molecular point group: c1

    Geometry (in Angstrom), charge = 0, multiplicity = 1:

       Center              X                  Y                   Z               Mass
    ------------   -----------------  -----------------  -----------------  -----------------
      Gh(F)           0.000000000000     0.000000000000     0.000000000000    18.998403162730
         O            2.510030000000    -0.661941000000    -0.832182000000    15.994914619570
         H            3.047987000000     0.136114000000    -0.766474000000     1.007825032230
         H            1.651515000000    -0.398683000000    -0.437510000000     1.007825032230
         O           -1.861163000000     1.391541000000     1.823140000000    15.994914619570
         H           -1.395324000000     0.891965000000     1.132552000000     1.007825032230
         H           -2.167141000000     2.148676000000     1.326070000000     1.007825032230
         O           -0.069818000000    -1.825737000000     1.950594000000    15.994914619570
         H            0.658754000000    -2.446451000000     1.867536000000     1.007825032230
         H           -0.032357000000    -1.190493000000     1.210077000000     1.007825032230
         O            2.118804000000     1.277032000000     1.563138000000    15.994914619570
         H            2.238847000000     0.825714000000     2.421086000000     1.007825032230
         H            1.328717000000     0.912441000000     1.134542000000     1.007825032230
         O           -2.940937000000    -0.619005000000    -0.168957000000    15.994914619570
         H           -2.026060000000    -0.454747000000    -0.472925000000     1.007825032230
         H           -3.379101000000    -1.135452000000    -0.844734000000     1.007825032230
         O            0.534776000000     0.816487000000    -2.672079000000    15.994914619570
         H            0.728932000000     1.193376000000    -1.819618000000     1.007825032230
         H           -0.414644000000     0.967166000000    -2.819436000000     1.007825032230

  Charge       = 0
  Multiplicity = 1
  Basis Set: AUG-CC-PVTZ
    Blend: AUG-CC-PVTZ
  Basis Set: (AUG-CC-PVTZ AUX)
    Blend: AUG-CC-PVTZ-JKFIT

    Orbital Energies [Eh]
    ---------------------

    Doubly Occupied:

       1A    -20.591473     2A    -20.590539     3A    -20.588066
       4A    -20.585278     5A    -20.578920     6A    -20.577031
       7A     -1.374790     8A     -1.368511     9A     -1.367345
      10A     -1.362491    11A     -1.359296    12A     -1.355182
      13A     -0.747296    14A     -0.744156    15A     -0.740693
      16A     -0.736216    17A     -0.717834    18A     -0.712454
      19A     -0.604114    20A     -0.599058    21A     -0.598591
      22A     -0.594937    23A     -0.594540    24A     -0.588873
      25A     -0.538264    26A     -0.531274    27A     -0.529834
      28A     -0.524147    29A     -0.515298    30A     -0.511550

  @DF-RHF Final Energy:  -456.33095276708144

   => Energetics <=

    Nuclear Repulsion Energy =            250.6955381689951992
    One-Electron Energy =               -1128.3968709728974318
    Two-Electron Energy =                 421.3703800368207908
    Total Energy =                       -456.3309527670814418
 Dipole X            :         -5.1100506            4.8635144           -0.2465362
 Dipole Y            :         -8.1126220            8.4596273            0.3470053
 Dipole Z            :        -29.6010827           28.8001783           -0.8009044
 Magnitude           :                                                    0.9069954

    SAPT Results
  --------------------------------------------------------------------------------------------------------
    Electrostatics               -159.42547512 [mEh]    -100.04099600 [kcal/mol]    -418.57152727 [kJ/mol]
      Elst10,r                   -157.96173333 [mEh]     -99.12248416 [kcal/mol]    -414.72847372 [kJ/mol]
      Elst12,r                     -1.46374179 [mEh]      -0.91851184 [kcal/mol]      -3.84305354 [kJ/mol]

    Exchange                      103.65738312 [mEh]      65.04598993 [kcal/mol]     272.15242187 [kJ/mol]
      Exch10                       77.06182286 [mEh]      48.35702391 [kcal/mol]     202.32578803 [kJ/mol]
      Exch10(S^2)                  77.72557947 [mEh]      48.77353747 [kcal/mol]     204.06848077 [kJ/mol]
      Exch11(S^2)                   1.49883668 [mEh]       0.94053422 [kcal/mol]       3.93519517 [kJ/mol]
      Exch12(S^2)                  25.09672358 [mEh]      15.74843180 [kcal/mol]      65.89143867 [kJ/mol]

    Induction                     -62.67143049 [mEh]     -39.32691637 [kcal/mol]    -164.54381808 [kJ/mol]
      Ind20,r                     -67.26875657 [mEh]     -42.21178204 [kcal/mol]    -176.61409604 [kJ/mol]
      Ind22                       -15.74129077 [mEh]      -9.87780909 [kcal/mol]     -41.32875323 [kJ/mol]
      Exch-Ind20,r                 21.99993369 [mEh]      13.80516682 [kcal/mol]      57.76081796 [kJ/mol]
      Exch-Ind22                    5.14811587 [mEh]       3.23049148 [kcal/mol]      13.51637635 [kJ/mol]
      delta HF,r (2)               -6.80943271 [mEh]      -4.27298354 [kcal/mol]     -17.87816312 [kJ/mol]

    Dispersion                    -32.52414247 [mEh]     -20.40920752 [kcal/mol]     -85.39212428 [kJ/mol]
      Disp20                      -30.66754591 [mEh]     -19.24417560 [kcal/mol]     -80.51763069 [kJ/mol]
      Disp21                        0.69330598 [mEh]       0.43505607 [kcal/mol]       1.82027460 [kJ/mol]
      Disp22 (SDQ)                 -3.87106367 [mEh]      -2.42912913 [kcal/mol]     -10.16347626 [kJ/mol]
      Disp22 (T)                   -5.75202909 [mEh]      -3.60945275 [kcal/mol]     -15.10195030 [kJ/mol]
      Est. Disp22 (T)              -6.71890043 [mEh]      -4.21617368 [kcal/mol]     -17.64047066 [kJ/mol]
      Exch-Disp20                   8.04006156 [mEh]       5.04521480 [kcal/mol]      21.10917873 [kJ/mol]

  Total HF                       -132.97816606 [mEh]     -83.44505901 [kcal/mol]    -349.13412690 [kJ/mol]
  Total SAPT0                    -155.60565041 [mEh]     -97.64401980 [kcal/mol]    -408.54257886 [kJ/mol]
  Total SAPT2                    -141.06700684 [mEh]     -88.52088323 [kcal/mol]    -370.37137544 [kJ/mol]
  Total SAPT2+                   -150.96366496 [mEh]     -94.73112996 [kcal/mol]    -396.35504776 [kJ/mol]

  Special recipe for scaled SAPT0 (see Manual):
    Electrostatics sSAPT0        -157.96173333 [mEh]     -99.12248416 [kcal/mol]    -414.72847372 [kJ/mol]
    Exchange sSAPT0                77.06182286 [mEh]      48.35702391 [kcal/mol]     202.32578803 [kJ/mol]
    Induction sSAPT0              -52.63707756 [mEh]     -33.03026484 [kcal/mol]    -138.19862810 [kJ/mol]
    Dispersion sSAPT0             -22.83171055 [mEh]     -14.32711468 [kcal/mol]     -59.94464780 [kJ/mol]
  Total sSAPT0                   -156.36869859 [mEh]     -98.12283977 [kcal/mol]    -410.54596159 [kJ/mol]
  --------------------------------------------------------------------------------------------------------

*** Psi4 exiting successfully. Buy a developer a beer!
