                               Psi4 1.8.2 release

  ==> Input File <==

--------------------------------------------------------------------------
MEMORY 60 GB

molecule dimer {
-1 1
F      0.000000     0.000000     0.000000
--
0 1
O      0.845562    -0.845142    -2.624376
H      0.611386    -0.330636    -3.393450
H      0.621838    -0.297746    -1.856041
O     -1.432887    -0.201644     2.286168
H     -0.868654    -0.102721     1.510265
H     -2.122142     0.377979     2.070333
O      2.434561    -1.422362     0.673959
H      1.818504    -0.731838     0.351774
H      2.614628    -2.112905    -0.060771
O      1.046966     1.802363     1.828080
H      0.810625     1.228982     2.579401
H      0.730030     1.314833     1.056170
O     -1.110680    -2.734785    -0.820393
H     -0.634442    -1.868649    -0.819997
H     -1.235246    -2.898655    -1.759953
O     -1.419169     2.399701    -0.513219
H     -0.863137     1.660037    -0.332687
H     -1.453857     2.952655     0.363362

units ang
no_reorient
no_com
symmetry c1
}

set {
basis        aug-cc-pVTZ
scf_type     df
}

energy("sapt2+")
--------------------------------------------------------------------------

  //              Dimer HF             //
    Molecular point group: c1
  Charge       = -1
  Multiplicity = 1
  Basis Set: AUG-CC-PVTZ
    Blend: AUG-CC-PVTZ
  Basis Set: (AUG-CC-PVTZ AUX)
    Blend: AUG-CC-PVTZ-JKFIT
  @DF-RHF Final Energy:  -555.92117120500279
    Total Energy =                       -555.9211712050027927
 Dipole X            :         -6.0021220            5.5640283           -0.4380937
 Dipole Y            :         17.3829673          -16.6742177            0.7087496
 Dipole Z            :        -13.4762297           12.0000595           -1.4761702
 Magnitude           :                                                    1.6950901
  //            Monomer A HF           //
    Molecular point group: c1
  Multiplicity = 1
  Basis Set: AUG-CC-PVTZ
    Blend: AUG-CC-PVTZ
  Basis Set: (AUG-CC-PVTZ AUX)
    Blend: AUG-CC-PVTZ-JKFIT
  @DF-RHF Final Energy:   -99.45115010339723
    Total Energy =                        -99.4511501033972252
  //            Monomer B HF           //
    Molecular point group: c1

    Geometry (in Angstrom), charge = 0, multiplicity = 1:

       Center              X                  Y                   Z               Mass
    ------------   -----------------  -----------------  -----------------  -----------------
      Gh(F)           0.000000000000     0.000000000000     0.000000000000    18.998403162730
         O            0.845562000000    -0.845142000000    -2.624376000000    15.994914619570
         H            0.611386000000    -0.330636000000    -3.393450000000     1.007825032230
         H            0.621838000000    -0.297746000000    -1.856041000000     1.007825032230
         O           -1.432887000000    -0.201644000000     2.286168000000    15.994914619570
         H           -0.868654000000    -0.102721000000     1.510265000000     1.007825032230
         H           -2.122142000000     0.377979000000     2.070333000000     1.007825032230
         O            2.434561000000    -1.422362000000     0.673959000000    15.994914619570
         H            1.818504000000    -0.731838000000     0.351774000000     1.007825032230
         H            2.614628000000    -2.112905000000    -0.060771000000     1.007825032230
         O            1.046966000000     1.802363000000     1.828080000000    15.994914619570
         H            0.810625000000     1.228982000000     2.579401000000     1.007825032230
         H            0.730030000000     1.314833000000     1.056170000000     1.007825032230
         O           -1.110680000000    -2.734785000000    -0.820393000000    15.994914619570
         H           -0.634442000000    -1.868649000000    -0.819997000000     1.007825032230
         H           -1.235246000000    -2.898655000000    -1.759953000000     1.007825032230
         O           -1.419169000000     2.399701000000    -0.513219000000    15.994914619570
         H           -0.863137000000     1.660037000000    -0.332687000000     1.007825032230
         H           -1.453857000000     2.952655000000     0.363362000000     1.007825032230

  Charge       = 0
  Multiplicity = 1
  Basis Set: AUG-CC-PVTZ
    Blend: AUG-CC-PVTZ
  Basis Set: (AUG-CC-PVTZ AUX)
    Blend: AUG-CC-PVTZ-JKFIT

    Orbital Energies [Eh]
    ---------------------

    Doubly Occupied:

       1A    -20.608621     2A    -20.604121     3A    -20.596363
       4A    -20.591145     5A    -20.584782     6A    -20.574374
       7A     -1.392176     8A     -1.388889     9A     -1.375163
      10A     -1.370906    11A     -1.349496    12A     -1.341161
      13A     -0.762486    14A     -0.744975    15A     -0.740347
      16A     -0.733019    17A     -0.717314    18A     -0.707660
      19A     -0.622851    20A     -0.622586    21A     -0.608916
      22A     -0.605778    23A     -0.591336    24A     -0.576945
      25A     -0.548637    26A     -0.541861    27A     -0.539395
      28A     -0.529925    29A     -0.517652    30A     -0.512076

  @DF-RHF Final Energy:  -456.32524049556741

   => Energetics <=

    Nuclear Repulsion Energy =            248.5931575440854999
    One-Electron Energy =               -1123.8348791242774496
    Two-Electron Energy =                 418.9164810846245928
    Total Energy =                       -456.3252404955674137
 Dipole X            :         -5.9986992            5.5640283           -0.4346708
 Dipole Y            :         17.4381992          -16.6742177            0.7639815
 Dipole Z            :        -13.2432771           12.0000595           -1.2432176
 Magnitude           :                                                    1.5225625

    SAPT Results
  --------------------------------------------------------------------------------------------------------
    Electrostatics               -170.01225159 [mEh]    -106.68429853 [kcal/mol]    -446.36710505 [kJ/mol]
      Elst10,r                   -169.15346976 [mEh]    -106.14540479 [kcal/mol]    -444.11237366 [kJ/mol]
      Elst12,r                     -0.85878183 [mEh]      -0.53889374 [kcal/mol]      -2.25473139 [kJ/mol]

    Exchange                      102.89028430 [mEh]      64.56462816 [kcal/mol]     270.13840422 [kJ/mol]
      Exch10                       76.15878565 [mEh]      47.79035951 [kcal/mol]     199.95486418 [kJ/mol]
      Exch10(S^2)                  76.91835829 [mEh]      48.26699853 [kcal/mol]     201.94912186 [kJ/mol]
      Exch11(S^2)                   1.63455079 [mEh]       1.02569610 [kcal/mol]       4.29151250 [kJ/mol]
      Exch12(S^2)                  25.09694787 [mEh]      15.74857255 [kcal/mol]      65.89202755 [kJ/mol]

    Induction                     -62.46626329 [mEh]     -39.19817200 [kcal/mol]    -164.00515167 [kJ/mol]
      Ind20,r                     -67.27289008 [mEh]     -42.21437585 [kcal/mol]    -176.62494857 [kJ/mol]
      Ind22                       -15.61596805 [mEh]      -9.79916789 [kcal/mol]     -40.99971846 [kJ/mol]
      Exch-Ind20,r                 21.26245846 [mEh]      13.34239412 [kcal/mol]      55.82457701 [kJ/mol]
      Exch-Ind22                    4.93562669 [mEh]       3.09715251 [kcal/mol]      12.95848610 [kJ/mol]
      delta HF,r (2)               -5.77549032 [mEh]      -3.62417489 [kcal/mol]     -15.16354774 [kJ/mol]

    Dispersion                    -32.94650883 [mEh]     -20.67424642 [kcal/mol]     -86.50104702 [kJ/mol]
      Disp20                      -30.84813500 [mEh]     -19.35749696 [kcal/mol]     -80.99176728 [kJ/mol]
      Disp21                        0.58347450 [mEh]       0.36613577 [kcal/mol]       1.53191208 [kJ/mol]
      Disp22 (SDQ)                 -3.87971554 [mEh]      -2.43455826 [kcal/mol]     -10.18619175 [kJ/mol]
      Disp22 (T)                   -5.80542422 [mEh]      -3.64295870 [kcal/mol]     -15.24213920 [kJ/mol]
      Est. Disp22 (T)              -6.78340441 [mEh]      -4.25665053 [kcal/mol]     -17.80982582 [kJ/mol]
      Exch-Disp20                   7.98127162 [mEh]       5.00832356 [kcal/mol]      20.95482576 [kJ/mol]

  Total HF                       -144.78060604 [mEh]     -90.85120191 [kcal/mol]    -380.12142878 [kJ/mol]
  Total SAPT0                    -167.64746942 [mEh]    -105.20037531 [kcal/mol]    -440.15837031 [kJ/mol]
  Total SAPT2                    -152.45509395 [mEh]     -95.66701578 [kcal/mol]    -400.27079401 [kJ/mol]
  Total SAPT2+                   -162.53473940 [mEh]    -101.99208879 [kcal/mol]    -426.73489951 [kJ/mol]

  Special recipe for scaled SAPT0 (see Manual):
    Electrostatics sSAPT0        -169.15346976 [mEh]    -106.14540479 [kcal/mol]    -444.11237366 [kJ/mol]
    Exchange sSAPT0                76.15878565 [mEh]      47.79035951 [kcal/mol]     199.95486418 [kJ/mol]
    Induction sSAPT0              -52.40962560 [mEh]     -32.88753658 [kcal/mol]    -137.60145306 [kJ/mol]
    Dispersion sSAPT0             -23.10098251 [mEh]     -14.49608538 [kcal/mol]     -60.65162123 [kJ/mol]
  Total sSAPT0                   -168.50529222 [mEh]    -105.73866725 [kcal/mol]    -442.41058378 [kJ/mol]
  --------------------------------------------------------------------------------------------------------

*** Psi4 exiting successfully. Buy a developer a beer!
