                               Psi4 1.8.2 release

  ==> Input File <==

--------------------------------------------------------------------------
MEMORY 60 GB

molecule dimer {
-1 1
F      0.000000     0.000000     0.000000
--
0 1
O      1.549726    -0.592173    -2.469497
H      2.491955    -0.304027    -2.354979
H      1.059966    -0.129118    -1.739114
O     -2.109158     0.552064     1.527417
H     -1.303685     0.262813     1.105559
H     -2.150940     1.467686     1.236099
O     -0.658953     2.609487    -0.786580
H     -0.277803     1.841298    -0.414688
H     -1.429545     2.816178    -0.200283
O      1.311910    -1.653315     1.534469
H      0.833433    -0.988070     1.037024
H      0.695205    -2.456602     1.463667
O     -1.617297    -0.996617    -2.102888
H     -1.802101    -0.062886    -2.375282
H     -1.153428    -0.952167    -1.276978

units ang
no_reorient
no_com
symmetry c1
}

set {
basis        aug-cc-pVTZ
scf_type     df
}

energy("sapt2+")
--------------------------------------------------------------------------

  //              Dimer HF             //
    Molecular point group: c1
  Charge       = -1
  Multiplicity = 1
  Basis Set: AUG-CC-PVTZ
    Blend: AUG-CC-PVTZ
  Basis Set: (AUG-CC-PVTZ AUX)
    Blend: AUG-CC-PVTZ-JKFIT
  @DF-RHF Final Energy:  -479.85166830594335
    Total Energy =                       -479.8516683059433490
 Dipole X            :         29.0287036          -28.7750846            0.2536190
 Dipole Y            :         -0.5462982            1.6075390            1.0612408
 Dipole Z            :         42.0842288          -41.3767006            0.7075282
 Magnitude           :                                                    1.3004426
  //            Monomer A HF           //
    Molecular point group: c1
  Multiplicity = 1
  Basis Set: AUG-CC-PVTZ
    Blend: AUG-CC-PVTZ
  Basis Set: (AUG-CC-PVTZ AUX)
    Blend: AUG-CC-PVTZ-JKFIT
  @DF-RHF Final Energy:   -99.45112436463211
    Total Energy =                        -99.4511243646321077
  //            Monomer B HF           //
    Molecular point group: c1

    Geometry (in Angstrom), charge = 0, multiplicity = 1:

       Center              X                  Y                   Z               Mass
    ------------   -----------------  -----------------  -----------------  -----------------
      Gh(F)           0.000000000000     0.000000000000     0.000000000000    18.998403162730
         O            1.549726000000    -0.592173000000    -2.469497000000    15.994914619570
         H            2.491955000000    -0.304027000000    -2.354979000000     1.007825032230
         H            1.059966000000    -0.129118000000    -1.739114000000     1.007825032230
         O           -2.109158000000     0.552064000000     1.527417000000    15.994914619570
         H           -1.303685000000     0.262813000000     1.105559000000     1.007825032230
         H           -2.150940000000     1.467686000000     1.236099000000     1.007825032230
         O           -0.658953000000     2.609487000000    -0.786580000000    15.994914619570
         H           -0.277803000000     1.841298000000    -0.414688000000     1.007825032230
         H           -1.429545000000     2.816178000000    -0.200283000000     1.007825032230
         O            1.311910000000    -1.653315000000     1.534469000000    15.994914619570
         H            0.833433000000    -0.988070000000     1.037024000000     1.007825032230
         H            0.695205000000    -2.456602000000     1.463667000000     1.007825032230
         O           -1.617297000000    -0.996617000000    -2.102888000000    15.994914619570
         H           -1.802101000000    -0.062886000000    -2.375282000000     1.007825032230
         H           -1.153428000000    -0.952167000000    -1.276978000000     1.007825032230

  Charge       = 0
  Multiplicity = 1
  Basis Set: AUG-CC-PVTZ
    Blend: AUG-CC-PVTZ
  Basis Set: (AUG-CC-PVTZ AUX)
    Blend: AUG-CC-PVTZ-JKFIT

    Orbital Energies [Eh]
    ---------------------

    Doubly Occupied:

       1A    -20.611660     2A    -20.606776     3A    -20.596072
       4A    -20.583925     5A    -20.577728     6A     -1.397505
       7A     -1.392136     8A     -1.363847     9A     -1.356661
      10A     -1.345856    11A     -0.761606    12A     -0.747389
      13A     -0.726227    14A     -0.720441    15A     -0.708593
      16A     -0.640207    17A     -0.614084    18A     -0.605165
      19A     -0.589029    20A     -0.585516    21A     -0.553428
      22A     -0.546846    23A     -0.530979    24A     -0.517255
      25A     -0.516625

  @DF-RHF Final Energy:  -380.26885510948483

   => Energetics <=

    Nuclear Repulsion Energy =            176.7308576125358854
    One-Electron Energy =                -875.6083065827995142
    Two-Electron Energy =                 318.6085938607788535
    Total Energy =                       -380.2688551094848322
 Dipole X            :         28.7809395          -28.7750846            0.0058549
 Dipole Y            :         -0.5714368            1.6075390            1.0361022
 Dipole Z            :         42.0134846          -41.3767006            0.6367840
 Magnitude           :                                                    1.2161562

    SAPT Results
  --------------------------------------------------------------------------------------------------------
    Electrostatics               -167.18759347 [mEh]    -104.91179880 [kcal/mol]    -438.95096619 [kJ/mol]
      Elst10,r                   -166.32625113 [mEh]    -104.37129832 [kcal/mol]    -436.68951217 [kJ/mol]
      Elst12,r                     -0.86134234 [mEh]      -0.54050048 [kcal/mol]      -2.26145401 [kJ/mol]

    Exchange                      112.84787749 [mEh]      70.81311222 [kcal/mol]     296.28206152 [kJ/mol]
      Exch10                       85.43452499 [mEh]      53.61097382 [kcal/mol]     224.30831446 [kJ/mol]
      Exch10(S^2)                  86.21350260 [mEh]      54.09978965 [kcal/mol]     226.35351988 [kJ/mol]
      Exch11(S^2)                   1.32644170 [mEh]       0.83235473 [kcal/mol]       3.48257220 [kJ/mol]
      Exch12(S^2)                  26.08691079 [mEh]      16.36978367 [kcal/mol]      68.49117485 [kJ/mol]

    Induction                     -61.25873834 [mEh]     -38.44043866 [kcal/mol]    -160.83479535 [kJ/mol]
      Ind20,r                     -69.20093868 [mEh]     -43.42424461 [kcal/mol]    -181.68703947 [kJ/mol]
      Ind22                       -16.58347764 [mEh]     -10.40628933 [kcal/mol]     -43.53991456 [kJ/mol]
      Exch-Ind20,r                 25.54575278 [mEh]      16.03020189 [kcal/mol]      67.07036469 [kJ/mol]
      Exch-Ind22                    6.12184500 [mEh]       3.84151573 [kcal/mol]      16.07290182 [kJ/mol]
      delta HF,r (2)               -7.14191979 [mEh]      -4.48162233 [kcal/mol]     -18.75110784 [kJ/mol]

    Dispersion                    -32.24340246 [mEh]     -20.23304051 [kcal/mol]     -84.65504150 [kJ/mol]
      Disp20                      -30.95576382 [mEh]     -19.42503506 [kcal/mol]     -81.27434670 [kJ/mol]
      Disp21                        0.66398021 [mEh]       0.41665387 [kcal/mol]       1.74327979 [kJ/mol]
      Disp22 (SDQ)                 -3.81888360 [mEh]      -2.39638564 [kcal/mol]     -10.02647750 [kJ/mol]
      Disp22 (T)                   -5.71426703 [mEh]      -3.58575670 [kcal/mol]     -15.00280603 [kJ/mol]
      Est. Disp22 (T)              -6.67533358 [mEh]      -4.18883506 [kcal/mol]     -17.52608589 [kJ/mol]
      Exch-Disp20                   8.54259832 [mEh]       5.36056138 [kcal/mol]      22.42858881 [kJ/mol]

  Total HF                       -131.68883183 [mEh]     -82.63598956 [kcal/mol]    -345.74898033 [kJ/mol]
  Total SAPT0                    -154.10199732 [mEh]     -96.70046325 [kcal/mol]    -404.59473822 [kJ/mol]
  Total SAPT2                    -138.01161982 [mEh]     -86.60359893 [kcal/mol]    -362.34945791 [kJ/mol]
  Total SAPT2+                   -147.84185678 [mEh]     -92.77216575 [kcal/mol]    -388.15874151 [kJ/mol]

  Special recipe for scaled SAPT0 (see Manual):
    Electrostatics sSAPT0        -166.32625113 [mEh]    -104.37129832 [kcal/mol]    -436.68951217 [kJ/mol]
    Exchange sSAPT0                85.43452499 [mEh]      53.61097382 [kcal/mol]     224.30831446 [kJ/mol]
    Induction sSAPT0              -51.48331987 [mEh]     -32.30627096 [kcal/mol]    -135.16943770 [kJ/mol]
    Dispersion sSAPT0             -22.64263816 [mEh]     -14.20846996 [kcal/mol]     -59.44823831 [kJ/mol]
  Total sSAPT0                   -155.01768417 [mEh]     -97.27506542 [kcal/mol]    -406.99887372 [kJ/mol]
  --------------------------------------------------------------------------------------------------------

*** Psi4 exiting successfully. Buy a developer a beer!
