                               Psi4 1.8.2 release

  ==> Input File <==

--------------------------------------------------------------------------
MEMORY 60 GB

molecule dimer {
-1 1
F      0.000000     0.000000     0.000000
--
0 1
O      0.242114    -1.452934     2.415504
H     -0.616381    -1.882187     2.541181
H      0.305655    -0.919337     1.625439
O      0.723027     0.126597    -2.933588
H      0.475233     0.093507    -2.011106
H      1.577772    -0.349467    -3.059852
O     -3.014078     0.047971    -0.335833
H     -3.042120     0.986298    -0.534262
H     -2.130844    -0.132734    -0.089201
O      2.661578    -0.504624    -0.408960
H      3.011063    -0.602591     0.481752
H      1.722111    -0.375198    -0.373612
O      1.830655     1.719823     1.752473
H      2.368893     0.936770     1.814979
H      1.174412     1.527972     1.038808
O     -0.230721    -2.491145    -1.068143
H      0.708270    -2.537811    -1.376508
H     -0.245774    -1.611418    -0.675802

units ang
no_reorient
no_com
symmetry c1
}

set {
basis        aug-cc-pVTZ
scf_type     df
}

energy("sapt2+")
--------------------------------------------------------------------------

  //              Dimer HF             //
    Molecular point group: c1
  Charge       = -1
  Multiplicity = 1
  Basis Set: AUG-CC-PVTZ
    Blend: AUG-CC-PVTZ
  Basis Set: (AUG-CC-PVTZ AUX)
    Blend: AUG-CC-PVTZ-JKFIT
  @DF-RHF Final Energy:  -555.92766125190747
    Total Energy =                       -555.9276612519074661
 Dipole X            :        -43.2669306           43.4805006            0.2135699
 Dipole Y            :         48.3778645          -47.8113787            0.5664858
 Dipole Z            :         10.3026697           -9.9145615            0.3881082
 Magnitude           :                                                    0.7191288
  //            Monomer A HF           //
    Molecular point group: c1
  Multiplicity = 1
  Basis Set: AUG-CC-PVTZ
    Blend: AUG-CC-PVTZ
  Basis Set: (AUG-CC-PVTZ AUX)
    Blend: AUG-CC-PVTZ-JKFIT
  @DF-RHF Final Energy:   -99.45114431240454
    Total Energy =                        -99.4511443124045513
  //            Monomer B HF           //
    Molecular point group: c1

    Geometry (in Angstrom), charge = 0, multiplicity = 1:

       Center              X                  Y                   Z               Mass
    ------------   -----------------  -----------------  -----------------  -----------------
      Gh(F)           0.000000000000     0.000000000000     0.000000000000    18.998403162730
         O            0.242114000000    -1.452934000000     2.415504000000    15.994914619570
         H           -0.616381000000    -1.882187000000     2.541181000000     1.007825032230
         H            0.305655000000    -0.919337000000     1.625439000000     1.007825032230
         O            0.723027000000     0.126597000000    -2.933588000000    15.994914619570
         H            0.475233000000     0.093507000000    -2.011106000000     1.007825032230
         H            1.577772000000    -0.349467000000    -3.059852000000     1.007825032230
         O           -3.014078000000     0.047971000000    -0.335833000000    15.994914619570
         H           -3.042120000000     0.986298000000    -0.534262000000     1.007825032230
         H           -2.130844000000    -0.132734000000    -0.089201000000     1.007825032230
         O            2.661578000000    -0.504624000000    -0.408960000000    15.994914619570
         H            3.011063000000    -0.602591000000     0.481752000000     1.007825032230
         H            1.722111000000    -0.375198000000    -0.373612000000     1.007825032230
         O            1.830655000000     1.719823000000     1.752473000000    15.994914619570
         H            2.368893000000     0.936770000000     1.814979000000     1.007825032230
         H            1.174412000000     1.527972000000     1.038808000000     1.007825032230
         O           -0.230721000000    -2.491145000000    -1.068143000000    15.994914619570
         H            0.708270000000    -2.537811000000    -1.376508000000     1.007825032230
         H           -0.245774000000    -1.611418000000    -0.675802000000     1.007825032230

  Charge       = 0
  Multiplicity = 1
  Basis Set: AUG-CC-PVTZ
    Blend: AUG-CC-PVTZ
  Basis Set: (AUG-CC-PVTZ AUX)
    Blend: AUG-CC-PVTZ-JKFIT

    Orbital Energies [Eh]
    ---------------------

    Doubly Occupied:

       1A    -20.617464     2A    -20.599341     3A    -20.595436
       4A    -20.592998     5A    -20.588724     6A    -20.585295
       7A     -1.406020     8A     -1.378545     9A     -1.375406
      10A     -1.374263    11A     -1.372734    12A     -1.365129
      13A     -0.786292    14A     -0.764496    15A     -0.747499
      16A     -0.742063    17A     -0.738378    18A     -0.726365
      19A     -0.633664    20A     -0.617288    21A     -0.603888
      22A     -0.603175    23A     -0.594346    24A     -0.591299
      25A     -0.561074    26A     -0.542543    27A     -0.536482
      28A     -0.530969    29A     -0.530032    30A     -0.523704

  @DF-RHF Final Energy:  -456.32638093899664

   => Energetics <=

    Nuclear Repulsion Energy =            252.3879731984080763
    One-Electron Energy =               -1130.9788785979046679
    Two-Electron Energy =                 422.2645244604999561
    Total Energy =                       -456.3263809389966355
 Dipole X            :        -42.8498172           43.4805006            0.6306833
 Dipole Y            :         47.8588880          -47.8113787            0.0475093
 Dipole Z            :         10.2329148           -9.9145615            0.3183533
 Magnitude           :                                                    0.7080730

    SAPT Results
  --------------------------------------------------------------------------------------------------------
    Electrostatics               -171.29922477 [mEh]    -107.49188639 [kcal/mol]    -449.74605267 [kJ/mol]
      Elst10,r                   -171.87909338 [mEh]    -107.85575944 [kcal/mol]    -451.26849750 [kJ/mol]
      Elst12,r                      0.57986861 [mEh]       0.36387305 [kcal/mol]       1.52244483 [kJ/mol]

    Exchange                       96.88777804 [mEh]      60.79799862 [kcal/mol]     254.37882621 [kJ/mol]
      Exch10                       71.40545593 [mEh]      44.80760008 [kcal/mol]     187.47499872 [kJ/mol]
      Exch10(S^2)                  71.95919880 [mEh]      45.15507897 [kcal/mol]     188.92885042 [kJ/mol]
      Exch11(S^2)                   1.58188799 [mEh]       0.99264970 [kcal/mol]       4.15324635 [kJ/mol]
      Exch12(S^2)                  23.90043412 [mEh]      14.99774884 [kcal/mol]      62.75058114 [kJ/mol]

    Induction                     -60.05367154 [mEh]     -37.68424783 [kcal/mol]    -157.67089292 [kJ/mol]
      Ind20,r                     -63.97283665 [mEh]     -40.14356107 [kcal/mol]    -167.96065950 [kJ/mol]
      Ind22                       -15.33435370 [mEh]      -9.62245222 [kcal/mol]     -40.26034010 [kJ/mol]
      Exch-Ind20,r                 20.62171189 [mEh]      12.94031958 [kcal/mol]      54.14229712 [kJ/mol]
      Exch-Ind22                    4.94304522 [mEh]       3.10180770 [kcal/mol]      12.97796343 [kJ/mol]
      delta HF,r (2)               -6.31123830 [mEh]      -3.96036182 [kcal/mol]     -16.57015386 [kJ/mol]

    Dispersion                    -31.17370188 [mEh]     -19.56179327 [kcal/mol]     -81.84654302 [kJ/mol]
      Disp20                      -29.02453092 [mEh]     -18.21316813 [kcal/mol]     -76.20389544 [kJ/mol]
      Disp21                        0.57654352 [mEh]       0.36178652 [kcal/mol]       1.51371480 [kJ/mol]
      Disp22 (SDQ)                 -3.80500040 [mEh]      -2.38767380 [kcal/mol]      -9.99002718 [kJ/mol]
      Disp22 (T)                   -5.53077972 [mEh]      -3.47061667 [kcal/mol]     -14.52106015 [kJ/mol]
      Est. Disp22 (T)              -6.43974568 [mEh]      -4.04100142 [kcal/mol]     -16.90754994 [kJ/mol]
      Exch-Disp20                   7.51903160 [mEh]       4.71826356 [kcal/mol]      19.74121474 [kJ/mol]

  Total HF                       -150.13600051 [mEh]     -94.21176267 [kcal/mol]    -394.18201502 [kJ/mol]
  Total SAPT0                    -171.64149983 [mEh]    -107.70666724 [kcal/mol]    -450.64469573 [kJ/mol]
  Total SAPT2                    -155.97061760 [mEh]     -97.87304017 [kcal/mol]    -409.50080009 [kJ/mol]
  Total SAPT2+                   -165.63882016 [mEh]    -103.93992887 [kcal/mol]    -434.88466241 [kJ/mol]

  Special recipe for scaled SAPT0 (see Manual):
    Electrostatics sSAPT0        -171.87909338 [mEh]    -107.85575944 [kcal/mol]    -451.26849750 [kJ/mol]
    Exchange sSAPT0                71.40545593 [mEh]      44.80760008 [kcal/mol]     187.47499872 [kJ/mol]
    Induction sSAPT0              -50.13477570 [mEh]     -31.46004672 [kcal/mol]    -131.62883547 [kJ/mol]
    Dispersion sSAPT0             -21.67774912 [mEh]     -13.60299294 [kcal/mol]     -56.91492247 [kJ/mol]
  Total sSAPT0                   -172.28616227 [mEh]    -108.11119903 [kcal/mol]    -452.33725672 [kJ/mol]
  --------------------------------------------------------------------------------------------------------

*** Psi4 exiting successfully. Buy a developer a beer!
