                               Psi4 1.8.2 release

  ==> Input File <==

--------------------------------------------------------------------------
MEMORY 60 GB

molecule dimer {
-1 1
Cl     0.000000     0.000000     0.000000
--
0 1
O     -0.626448    -3.113592     0.754314
H     -0.239394    -2.239675     0.691889
H     -1.537945    -2.905973     0.527826
O      1.128243    -1.708551    -2.677056
H      0.826606    -1.143339    -1.981423
H      0.825023    -2.562071    -2.503514
O      2.956940    -0.462505     1.050307
H      2.187350    -0.102340     0.693405
H      2.611752    -1.280708     1.398652
O     -0.731735     3.351951     0.529715
H     -0.503408     2.491672     0.171643
H     -0.052956     3.760527     1.140496
O      1.659667     1.365866    -2.584794
H      1.265558     1.161297    -3.485117
H      1.085125     0.911723    -1.915010

units ang
no_reorient
no_com
symmetry c1
}

set {
basis        aug-cc-pVTZ
scf_type     df
}

energy("sapt2+")
--------------------------------------------------------------------------

  //              Dimer HF             //
    Molecular point group: c1
  Charge       = -1
  Multiplicity = 1
  Basis Set: AUG-CC-PVTZ
    Blend: AUG-CC-PVTZ
  Basis Set: (AUG-CC-PVTZ AUX)
    Blend: AUG-CC-PVTZ-JKFIT
  @DF-RHF Final Energy:  -839.92968758559437
    Total Energy =                       -839.9296875855943654
 Dipole X            :        -80.4071193           78.5389963           -1.8681229
 Dipole Y            :         11.7764114          -12.1765164           -0.4001051
 Dipole Z            :         54.8694297          -54.1997358            0.6696939
 Magnitude           :                                                    2.0244647
  //            Monomer A HF           //
    Molecular point group: c1
  Multiplicity = 1
  Basis Set: AUG-CC-PVTZ
    Blend: AUG-CC-PVTZ
  Basis Set: (AUG-CC-PVTZ AUX)
    Blend: AUG-CC-PVTZ-JKFIT
  @DF-RHF Final Energy:  -459.57357559380915
    Total Energy =                       -459.5735755938092097
  //            Monomer B HF           //
    Molecular point group: c1

    Geometry (in Angstrom), charge = 0, multiplicity = 1:

       Center              X                  Y                   Z               Mass
    ------------   -----------------  -----------------  -----------------  -----------------
      Gh(CL)          0.000000000000     0.000000000000     0.000000000000    34.968852682000
         O           -0.626448000000    -3.113592000000     0.754314000000    15.994914619570
         H           -0.239394000000    -2.239675000000     0.691889000000     1.007825032230
         H           -1.537945000000    -2.905973000000     0.527826000000     1.007825032230
         O            1.128243000000    -1.708551000000    -2.677056000000    15.994914619570
         H            0.826606000000    -1.143339000000    -1.981423000000     1.007825032230
         H            0.825023000000    -2.562071000000    -2.503514000000     1.007825032230
         O            2.956940000000    -0.462505000000     1.050307000000    15.994914619570
         H            2.187350000000    -0.102340000000     0.693405000000     1.007825032230
         H            2.611752000000    -1.280708000000     1.398652000000     1.007825032230
         O           -0.731735000000     3.351951000000     0.529715000000    15.994914619570
         H           -0.503408000000     2.491672000000     0.171643000000     1.007825032230
         H           -0.052956000000     3.760527000000     1.140496000000     1.007825032230
         O            1.659667000000     1.365866000000    -2.584794000000    15.994914619570
         H            1.265558000000     1.161297000000    -3.485117000000     1.007825032230
         H            1.085125000000     0.911723000000    -1.915010000000     1.007825032230

  Charge       = 0
  Multiplicity = 1
  Basis Set: AUG-CC-PVTZ
    Blend: AUG-CC-PVTZ
  Basis Set: (AUG-CC-PVTZ AUX)
    Blend: AUG-CC-PVTZ-JKFIT

    Orbital Energies [Eh]
    ---------------------

    Doubly Occupied:

       1A    -20.598521     2A    -20.583132     3A    -20.579829
       4A    -20.579598     5A    -20.576390     6A     -1.384518
       7A     -1.382070     8A     -1.381833     9A     -1.346062
      10A     -1.342267    11A     -0.758538    12A     -0.735957
      13A     -0.735705    14A     -0.733431    15A     -0.709814
      16A     -0.621771    17A     -0.610431    18A     -0.600055
      19A     -0.582240    20A     -0.569862    21A     -0.539981
      22A     -0.529709    23A     -0.526052    24A     -0.516505
      25A     -0.514557

  @DF-RHF Final Energy:  -380.27772682813935

   => Energetics <=

    Nuclear Repulsion Energy =            161.7988631495850882
    One-Electron Energy =                -846.0755168737891836
    Two-Electron Energy =                 303.9989268960648019
    Total Energy =                       -380.2777268281393503
 Dipole X            :        -79.9416221           78.5389963           -1.4026258
 Dipole Y            :         11.6023941          -12.1765164           -0.5741223
 Dipole Z            :         54.5306520          -54.1997358            0.3309162
 Magnitude           :                                                    1.5512837

    SAPT Results
  --------------------------------------------------------------------------------------------------------
    Electrostatics               -104.21335597 [mEh]     -65.39486817 [kcal/mol]    -273.61212840 [kJ/mol]
      Elst10,r                   -105.15772549 [mEh]     -65.98746899 [kcal/mol]    -276.09157024 [kJ/mol]
      Elst12,r                      0.94436952 [mEh]       0.59260082 [kcal/mol]       2.47944183 [kJ/mol]

    Exchange                       63.15781322 [mEh]      39.63212614 [kcal/mol]     165.82081575 [kJ/mol]
      Exch10                       54.85073416 [mEh]      34.41935533 [kcal/mol]     144.01058270 [kJ/mol]
      Exch10(S^2)                  54.57521706 [mEh]      34.24646574 [kcal/mol]     143.28721264 [kJ/mol]
      Exch11(S^2)                   2.77916769 [mEh]       1.74395406 [kcal/mol]       7.29670377 [kJ/mol]
      Exch12(S^2)                   5.52791136 [mEh]       3.46881675 [kcal/mol]      14.51352928 [kJ/mol]

    Induction                     -31.13106257 [mEh]     -19.53503669 [kcal/mol]     -81.73459352 [kJ/mol]
      Ind20,r                     -46.13973927 [mEh]     -28.95312351 [kcal/mol]    -121.13986877 [kJ/mol]
      Ind22                        -6.47066911 [mEh]      -4.06040617 [kcal/mol]     -16.98873941 [kJ/mol]
      Exch-Ind20,r                 24.37080659 [mEh]      15.29291202 [kcal/mol]      63.98554388 [kJ/mol]
      Exch-Ind22                    3.41777886 [mEh]       2.14468861 [kcal/mol]       8.97337715 [kJ/mol]
      delta HF,r (2)               -6.30923963 [mEh]      -3.95910764 [kcal/mol]     -16.56490637 [kJ/mol]

    Dispersion                    -24.40145287 [mEh]     -15.31214285 [kcal/mol]     -64.06600567 [kJ/mol]
      Disp20                      -26.93074901 [mEh]     -16.89930014 [kcal/mol]     -70.70667177 [kJ/mol]
      Disp21                        1.62480754 [mEh]       1.01958212 [kcal/mol]       4.26593160 [kJ/mol]
      Disp22 (SDQ)                 -0.14527029 [mEh]      -0.09115848 [kcal/mol]      -0.38140708 [kJ/mol]
      Disp22 (T)                   -4.36830264 [mEh]      -2.74115129 [kcal/mol]     -11.46897701 [kJ/mol]
      Est. Disp22 (T)              -5.04768234 [mEh]      -3.16746849 [kcal/mol]     -13.25268817 [kJ/mol]
      Exch-Disp20                   6.09744123 [mEh]       3.82620214 [kcal/mol]      16.00882975 [kJ/mol]

  Total HF                        -78.38516365 [mEh]     -49.18743279 [kcal/mol]    -205.80021880 [kJ/mol]
  Total SAPT0                     -99.21847142 [mEh]     -62.26053079 [kcal/mol]    -260.49806083 [kJ/mol]
  Total SAPT2                     -93.01991310 [mEh]     -58.37087672 [kcal/mol]    -244.22374820 [kJ/mol]
  Total SAPT2+                    -96.58805819 [mEh]     -60.60992157 [kcal/mol]    -253.59191184 [kJ/mol]

  Special recipe for scaled SAPT0 (see Manual):
    Electrostatics sSAPT0        -105.15772549 [mEh]     -65.98746899 [kcal/mol]    -276.09157024 [kJ/mol]
    Exchange sSAPT0                54.85073416 [mEh]      34.41935533 [kcal/mol]     144.01058270 [kJ/mol]
    Induction sSAPT0              -27.70720564 [mEh]     -17.38653403 [kcal/mol]     -72.74525839 [kJ/mol]
    Dispersion sSAPT0             -20.74049396 [mEh]     -13.01485645 [kcal/mol]     -54.45415939 [kJ/mol]
  Total sSAPT0                    -98.75469093 [mEh]     -61.96950414 [kcal/mol]    -259.28040531 [kJ/mol]
  --------------------------------------------------------------------------------------------------------

*** Psi4 exiting successfully. Buy a developer a beer!
