                               Psi4 1.8.2 release

  ==> Input File <==

--------------------------------------------------------------------------
MEMORY 60 GB

molecule dimer {
-1 1
Cl     0.000000     0.000000     0.000000
--
0 1
O      2.580413    -0.085154    -1.557658
H      1.740288    -0.171482    -1.041132
H      2.991017    -0.923894    -1.427814
O     -2.460905    -2.327479    -0.521416
H     -1.544293    -2.447915    -0.236860
H     -2.917761    -3.166475    -0.428069
O      0.510044     1.531334     2.976305
H      0.808066     1.990027     2.164238
H      0.061676     0.714654     2.566184
O     -3.154292     0.989802    -0.487484
H     -3.631637     0.174371    -0.654459
H     -2.267810     0.655784    -0.465304
O     -0.248988    -1.979578    -2.367955
H      0.454594    -1.824462    -2.932228
H     -0.066118    -1.448601    -1.593092

units ang
no_reorient
no_com
symmetry c1
}

set {
basis        aug-cc-pVTZ
scf_type     df
}

energy("sapt2+")
--------------------------------------------------------------------------

  //              Dimer HF             //
    Molecular point group: c1
  Charge       = -1
  Multiplicity = 1
  Basis Set: AUG-CC-PVTZ
    Blend: AUG-CC-PVTZ
  Basis Set: (AUG-CC-PVTZ AUX)
    Blend: AUG-CC-PVTZ-JKFIT
  @DF-RHF Final Energy:  -839.92176583943524
    Total Energy =                       -839.9217658394352384
 Dipole X            :         50.9075229          -50.1945312            0.7129918
 Dipole Y            :         38.9492163          -40.4714953           -1.5222790
 Dipole Z            :         37.4510978          -37.2544388            0.1966590
 Magnitude           :                                                    1.6924436
  //            Monomer A HF           //
    Molecular point group: c1
  Multiplicity = 1
  Basis Set: AUG-CC-PVTZ
    Blend: AUG-CC-PVTZ
  Basis Set: (AUG-CC-PVTZ AUX)
    Blend: AUG-CC-PVTZ-JKFIT
  @DF-RHF Final Energy:  -459.57357080000821
    Total Energy =                       -459.5735708000082127
  //            Monomer B HF           //
    Molecular point group: c1

    Geometry (in Angstrom), charge = 0, multiplicity = 1:

       Center              X                  Y                   Z               Mass
    ------------   -----------------  -----------------  -----------------  -----------------
      Gh(CL)          0.000000000000     0.000000000000     0.000000000000    34.968852682000
         O            2.580413000000    -0.085154000000    -1.557658000000    15.994914619570
         H            1.740288000000    -0.171482000000    -1.041132000000     1.007825032230
         H            2.991017000000    -0.923894000000    -1.427814000000     1.007825032230
         O           -2.460905000000    -2.327479000000    -0.521416000000    15.994914619570
         H           -1.544293000000    -2.447915000000    -0.236860000000     1.007825032230
         H           -2.917761000000    -3.166475000000    -0.428069000000     1.007825032230
         O            0.510044000000     1.531334000000     2.976305000000    15.994914619570
         H            0.808066000000     1.990027000000     2.164238000000     1.007825032230
         H            0.061676000000     0.714654000000     2.566184000000     1.007825032230
         O           -3.154292000000     0.989802000000    -0.487484000000    15.994914619570
         H           -3.631637000000     0.174371000000    -0.654459000000     1.007825032230
         H           -2.267810000000     0.655784000000    -0.465304000000     1.007825032230
         O           -0.248988000000    -1.979578000000    -2.367955000000    15.994914619570
         H            0.454594000000    -1.824462000000    -2.932228000000     1.007825032230
         H           -0.066118000000    -1.448601000000    -1.593092000000     1.007825032230

  Charge       = 0
  Multiplicity = 1
  Basis Set: AUG-CC-PVTZ
    Blend: AUG-CC-PVTZ
  Basis Set: (AUG-CC-PVTZ AUX)
    Blend: AUG-CC-PVTZ-JKFIT

    Orbital Energies [Eh]
    ---------------------

    Doubly Occupied:

       1A    -20.598308     2A    -20.583144     3A    -20.583140
       4A    -20.582085     5A    -20.556383     6A     -1.386519
       7A     -1.379225     8A     -1.364499     9A     -1.347238
      10A     -1.343299    11A     -0.759113    12A     -0.738629
      13A     -0.733070    14A     -0.699259    15A     -0.694518
      16A     -0.617868    17A     -0.605815    18A     -0.601090
      19A     -0.591666    20A     -0.579048    21A     -0.538327
      22A     -0.531895    23A     -0.523932    24A     -0.515009
      25A     -0.500474

  @DF-RHF Final Energy:  -380.28557637915816

   => Energetics <=

    Nuclear Repulsion Energy =            164.1851182113253458
    One-Electron Energy =                -851.0342765094924289
    Two-Electron Energy =                 306.5635819190089819
    Total Energy =                       -380.2855763791581580
 Dipole X            :         51.0061116          -50.1945312            0.8115804
 Dipole Y            :         38.6145753          -40.4714953           -1.8569200
 Dipole Z            :         37.0541566          -37.2544388           -0.2002822
 Magnitude           :                                                    2.0364007

    SAPT Results
  --------------------------------------------------------------------------------------------------------
    Electrostatics               -101.66980503 [mEh]     -63.79876585 [kcal/mol]    -266.93403632 [kJ/mol]
      Elst10,r                   -101.11694109 [mEh]     -63.45183850 [kcal/mol]    -265.48249226 [kJ/mol]
      Elst12,r                     -0.55286393 [mEh]      -0.34692736 [kcal/mol]      -1.45154405 [kJ/mol]

    Exchange                       81.79728975 [mEh]      51.32857424 [kcal/mol]     214.75875464 [kJ/mol]
      Exch10                       72.44064386 [mEh]      45.45719031 [kcal/mol]     190.19288426 [kJ/mol]
      Exch10(S^2)                  71.37251971 [mEh]      44.78693229 [kcal/mol]     187.38852469 [kJ/mol]
      Exch11(S^2)                   3.28913160 [mEh]       2.06396124 [kcal/mol]       8.63561382 [kJ/mol]
      Exch12(S^2)                   6.06751428 [mEh]       3.80742269 [kcal/mol]      15.93025655 [kJ/mol]

    Induction                     -37.21908893 [mEh]     -23.35533091 [kcal/mol]     -97.71870451 [kJ/mol]
      Ind20,r                     -57.46245543 [mEh]     -36.05823517 [kcal/mol]    -150.86765595 [kJ/mol]
      Ind22                        -7.41673719 [mEh]      -4.65407285 [kcal/mol]     -19.47264080 [kJ/mol]
      Exch-Ind20,r                 32.07545433 [mEh]      20.12765147 [kcal/mol]      84.21409375 [kJ/mol]
      Exch-Ind22                    4.14001130 [mEh]       2.59789631 [kcal/mol]      10.86959818 [kJ/mol]
      delta HF,r (2)               -8.55536194 [mEh]      -5.36857067 [kcal/mol]     -22.46209968 [kJ/mol]

    Dispersion                    -27.40976757 [mEh]     -17.19988882 [kcal/mol]     -71.96433484 [kJ/mol]
      Disp20                      -31.14543138 [mEh]     -19.54405326 [kcal/mol]     -81.77231883 [kJ/mol]
      Disp21                        2.14915155 [mEh]       1.34861296 [kcal/mol]       5.64259661 [kJ/mol]
      Disp22 (SDQ)                 -0.01130350 [mEh]      -0.00709305 [kcal/mol]      -0.02967733 [kJ/mol]
      Disp22 (T)                   -4.92734616 [mEh]      -3.09195639 [kcal/mol]     -12.93674555 [kJ/mol]
      Est. Disp22 (T)              -5.66091525 [mEh]      -3.55227795 [kcal/mol]     -14.86273094 [kJ/mol]
      Exch-Disp20                   7.25873101 [mEh]       4.55492248 [kcal/mol]      19.05779564 [kJ/mol]

  Total HF                        -62.61866027 [mEh]     -39.29380255 [kcal/mol]    -164.40526989 [kJ/mol]
  Total SAPT0                     -86.50536064 [mEh]     -54.28293333 [kcal/mol]    -227.11979307 [kJ/mol]
  Total SAPT2                     -80.97830458 [mEh]     -50.81465329 [kcal/mol]    -212.60850938 [kJ/mol]
  Total SAPT2+                    -84.50137178 [mEh]     -53.02541134 [kcal/mol]    -221.85832103 [kJ/mol]

  Special recipe for scaled SAPT0 (see Manual):
    Electrostatics sSAPT0        -101.11694109 [mEh]     -63.45183850 [kcal/mol]    -265.48249226 [kJ/mol]
    Exchange sSAPT0                72.44064386 [mEh]      45.45719031 [kcal/mol]     190.19288426 [kJ/mol]
    Induction sSAPT0              -32.48063024 [mEh]     -20.38190319 [kcal/mol]     -85.27788294 [kJ/mol]
    Dispersion sSAPT0             -23.55590770 [mEh]     -14.78155525 [kcal/mol]     -61.84602715 [kJ/mol]
  Total sSAPT0                    -84.71283517 [mEh]     -53.15810662 [kcal/mol]    -222.41351809 [kJ/mol]
  --------------------------------------------------------------------------------------------------------

*** Psi4 exiting successfully. Buy a developer a beer!
