                               Psi4 1.8.2 release

  ==> Input File <==

--------------------------------------------------------------------------
MEMORY 60 GB

molecule dimer {
-1 1
Cl     0.000000     0.000000     0.000000
--
0 1
O      2.004466    -0.496177     2.546536
H      2.585244    -1.154785     2.189831
H      1.363421    -0.266412     1.830507
O      2.479580    -1.598125    -1.227379
H      1.827334    -1.093465    -0.781736
H      2.036467    -2.371329    -1.587810
O     -2.771537     0.837457     1.822875
H     -3.237440     0.820329     0.989508
H     -2.323566     0.003383     1.867055
O     -0.416174    -1.379225    -3.003309
H     -0.168991    -0.896023    -2.169454
H      0.155754    -2.140456    -3.062651

units ang
no_reorient
no_com
symmetry c1
}

set {
basis        aug-cc-pVTZ
scf_type     df
}

energy("sapt2+")
--------------------------------------------------------------------------

  //              Dimer HF             //
    Molecular point group: c1
  Charge       = -1
  Multiplicity = 1
  Basis Set: AUG-CC-PVTZ
    Blend: AUG-CC-PVTZ
  Basis Set: (AUG-CC-PVTZ AUX)
    Blend: AUG-CC-PVTZ-JKFIT
  @DF-RHF Final Energy:  -763.86257785380735
    Total Energy =                       -763.8625778538073519
 Dipole X            :        -24.4268401           23.8273734           -0.5994667
 Dipole Y            :         52.5957551          -53.2663112           -0.6705561
 Dipole Z            :         -1.2753760            0.7276088           -0.5477672
 Magnitude           :                                                    1.0531167
  //            Monomer A HF           //
    Molecular point group: c1
  Multiplicity = 1
  Basis Set: AUG-CC-PVTZ
    Blend: AUG-CC-PVTZ
  Basis Set: (AUG-CC-PVTZ AUX)
    Blend: AUG-CC-PVTZ-JKFIT
  @DF-RHF Final Energy:  -459.57355187247509
    Total Energy =                       -459.5735518724750364
  //            Monomer B HF           //
    Molecular point group: c1

    Geometry (in Angstrom), charge = 0, multiplicity = 1:

       Center              X                  Y                   Z               Mass
    ------------   -----------------  -----------------  -----------------  -----------------
      Gh(CL)          0.000000000000     0.000000000000     0.000000000000    34.968852682000
         O            2.004466000000    -0.496177000000     2.546536000000    15.994914619570
         H            2.585244000000    -1.154785000000     2.189831000000     1.007825032230
         H            1.363421000000    -0.266412000000     1.830507000000     1.007825032230
         O            2.479580000000    -1.598125000000    -1.227379000000    15.994914619570
         H            1.827334000000    -1.093465000000    -0.781736000000     1.007825032230
         H            2.036467000000    -2.371329000000    -1.587810000000     1.007825032230
         O           -2.771537000000     0.837457000000     1.822875000000    15.994914619570
         H           -3.237440000000     0.820329000000     0.989508000000     1.007825032230
         H           -2.323566000000     0.003383000000     1.867055000000     1.007825032230
         O           -0.416174000000    -1.379225000000    -3.003309000000    15.994914619570
         H           -0.168991000000    -0.896023000000    -2.169454000000     1.007825032230
         H            0.155754000000    -2.140456000000    -3.062651000000     1.007825032230

  Charge       = 0
  Multiplicity = 1
  Basis Set: AUG-CC-PVTZ
    Blend: AUG-CC-PVTZ
  Basis Set: (AUG-CC-PVTZ AUX)
    Blend: AUG-CC-PVTZ-JKFIT

    Orbital Energies [Eh]
    ---------------------

    Doubly Occupied:

       1A    -20.595679     2A    -20.589536     3A    -20.577626
       4A    -20.574314     5A     -1.387715     6A     -1.364713
       7A     -1.364111     8A     -1.356394     9A     -0.758650
      10A     -0.733174    11A     -0.729786    12A     -0.725347
      13A     -0.616495    14A     -0.593551    15A     -0.593311
      16A     -0.587654    17A     -0.541046    18A     -0.527345
      19A     -0.518940    20A     -0.518004

  @DF-RHF Final Energy:  -304.23199014592097

   => Energetics <=

    Nuclear Repulsion Energy =            103.9808192213519078
    One-Electron Energy =                -625.9188375326191363
    Two-Electron Energy =                 217.7060281653462539
    Total Energy =                       -304.2319901459209746
 Dipole X            :        -24.0161548           23.8273734           -0.1887813
 Dipole Y            :         52.0589855          -53.2663112           -1.2073258
 Dipole Z            :         -1.4181304            0.7276088           -0.6905216
 Magnitude           :                                                    1.4036003

    SAPT Results
  --------------------------------------------------------------------------------------------------------
    Electrostatics                -77.19825651 [mEh]     -48.44263732 [kcal/mol]    -202.68399454 [kJ/mol]
      Elst10,r                    -77.42514776 [mEh]     -48.58501373 [kcal/mol]    -203.27969745 [kJ/mol]
      Elst12,r                      0.22689126 [mEh]       0.14237641 [kcal/mol]       0.59570291 [kJ/mol]

    Exchange                       52.61198707 [mEh]      33.01452032 [kcal/mol]     138.13275301 [kJ/mol]
      Exch10                       46.12985770 [mEh]      28.94692273 [kcal/mol]     121.11392470 [kJ/mol]
      Exch10(S^2)                  45.67226056 [mEh]      28.65977619 [kcal/mol]     119.91250358 [kJ/mol]
      Exch11(S^2)                   2.00600240 [mEh]       1.25878551 [kcal/mol]       5.26675859 [kJ/mol]
      Exch12(S^2)                   4.47612696 [mEh]       2.80881208 [kcal/mol]      11.75206973 [kJ/mol]

    Induction                     -28.19637884 [mEh]     -17.69349485 [kcal/mol]     -74.02958244 [kJ/mol]
      Ind20,r                     -40.67361589 [mEh]     -25.52307931 [kcal/mol]    -106.78856382 [kJ/mol]
      Ind22                        -5.17666935 [mEh]      -3.24840906 [kcal/mol]     -13.59134352 [kJ/mol]
      Exch-Ind20,r                 21.37788319 [mEh]      13.41482423 [kcal/mol]      56.12762459 [kJ/mol]
      Exch-Ind22                    2.72083586 [mEh]       1.70735028 [kcal/mol]       7.14355357 [kJ/mol]
      delta HF,r (2)               -6.44481265 [mEh]      -4.04418099 [kcal/mol]     -16.92085327 [kJ/mol]

    Dispersion                    -19.45518917 [mEh]     -12.20831552 [kcal/mol]     -51.07959212 [kJ/mol]
      Disp20                      -21.50842738 [mEh]     -13.49674195 [kcal/mol]     -56.47036831 [kJ/mol]
      Disp21                        1.23667642 [mEh]       0.77602617 [kcal/mol]       3.24689351 [kJ/mol]
      Disp22 (SDQ)                 -0.06809976 [mEh]      -0.04273325 [kcal/mol]      -0.17879590 [kJ/mol]
      Disp22 (T)                   -3.44667087 [mEh]      -2.16281862 [kcal/mol]      -9.04923311 [kJ/mol]
      Est. Disp22 (T)              -3.98295213 [mEh]      -2.49934019 [kcal/mol]     -10.45723937 [kJ/mol]
      Exch-Disp20                   4.86761368 [mEh]       3.05447370 [kcal/mol]      12.77991796 [kJ/mol]

  Total HF                        -57.03583541 [mEh]     -35.79052707 [kcal/mol]    -149.74756524 [kJ/mol]
  Total SAPT0                     -73.67664911 [mEh]     -46.23279531 [kcal/mol]    -193.43801559 [kJ/mol]
  Total SAPT2                     -69.42346198 [mEh]     -43.56388009 [kcal/mol]    -182.27127431 [kJ/mol]
  Total SAPT2+                    -72.23783744 [mEh]     -45.32992736 [kcal/mol]    -189.66041608 [kJ/mol]

  Special recipe for scaled SAPT0 (see Manual):
    Electrostatics sSAPT0         -77.42514776 [mEh]     -48.58501373 [kcal/mol]    -203.27969745 [kJ/mol]
    Exchange sSAPT0                46.12985770 [mEh]      28.94692273 [kcal/mol]     121.11392470 [kJ/mol]
    Induction sSAPT0              -25.09152137 [mEh]     -15.74516737 [kcal/mol]     -65.87778027 [kJ/mol]
    Dispersion sSAPT0             -16.49303490 [mEh]     -10.34953565 [kcal/mol]     -43.30245716 [kJ/mol]
  Total sSAPT0                    -72.87984633 [mEh]     -45.73279402 [kcal/mol]    -191.34601017 [kJ/mol]
  --------------------------------------------------------------------------------------------------------

*** Psi4 exiting successfully. Buy a developer a beer!
