                               Psi4 1.8.2 release

  ==> Input File <==

--------------------------------------------------------------------------
MEMORY 60 GB

molecule dimer {
-1 1
Cl     0.000000     0.000000     0.000000
--
0 1
O      0.309276     2.230580     2.384255
H      0.172358     1.780632     1.568707
H      0.070820     1.580932     3.070981
O     -3.106756    -1.201459     0.184859
H     -3.615730    -1.153433    -0.609588
H     -2.337299    -0.547263     0.106862
O      2.375058     0.829933    -1.953883
H      2.611264     1.792549    -2.051113
H      1.790705     0.628269    -1.215983
O     -0.849852     2.660511    -1.102632
H     -0.932491     2.833868    -2.029998
H     -0.711092     1.689129    -1.111696

units ang
no_reorient
no_com
symmetry c1
}

set {
basis        aug-cc-pVTZ
scf_type     df
}

energy("sapt2+")
--------------------------------------------------------------------------

  //              Dimer HF             //
    Molecular point group: c1
  Charge       = -1
  Multiplicity = 1
  Basis Set: AUG-CC-PVTZ
    Blend: AUG-CC-PVTZ
  Basis Set: (AUG-CC-PVTZ AUX)
    Blend: AUG-CC-PVTZ-JKFIT
  @DF-RHF Final Energy:  -763.85424220108246
    Total Energy =                       -763.8542422010824566
 Dipole X            :         24.6978903          -24.8114559           -0.1135656
 Dipole Y            :        -85.4067031           84.5864147           -0.8202884
 Dipole Z            :         10.9841375          -11.6615680           -0.6774305
 Magnitude           :                                                    1.0698982
  //            Monomer A HF           //
    Molecular point group: c1
  Multiplicity = 1
  Basis Set: AUG-CC-PVTZ
    Blend: AUG-CC-PVTZ
  Basis Set: (AUG-CC-PVTZ AUX)
    Blend: AUG-CC-PVTZ-JKFIT
  @DF-RHF Final Energy:  -459.57356604435870
    Total Energy =                       -459.5735660443586994
  //            Monomer B HF           //
    Molecular point group: c1

    Geometry (in Angstrom), charge = 0, multiplicity = 1:

       Center              X                  Y                   Z               Mass
    ------------   -----------------  -----------------  -----------------  -----------------
      Gh(CL)          0.000000000000     0.000000000000     0.000000000000    34.968852682000
         O            0.309276000000     2.230580000000     2.384255000000    15.994914619570
         H            0.172358000000     1.780632000000     1.568707000000     1.007825032230
         H            0.070820000000     1.580932000000     3.070981000000     1.007825032230
         O           -3.106756000000    -1.201459000000     0.184859000000    15.994914619570
         H           -3.615730000000    -1.153433000000    -0.609588000000     1.007825032230
         H           -2.337299000000    -0.547263000000     0.106862000000     1.007825032230
         O            2.375058000000     0.829933000000    -1.953883000000    15.994914619570
         H            2.611264000000     1.792549000000    -2.051113000000     1.007825032230
         H            1.790705000000     0.628269000000    -1.215983000000     1.007825032230
         O           -0.849852000000     2.660511000000    -1.102632000000    15.994914619570
         H           -0.932491000000     2.833868000000    -2.029998000000     1.007825032230
         H           -0.711092000000     1.689129000000    -1.111696000000     1.007825032230

  Charge       = 0
  Multiplicity = 1
  Basis Set: AUG-CC-PVTZ
    Blend: AUG-CC-PVTZ
  Basis Set: (AUG-CC-PVTZ AUX)
    Blend: AUG-CC-PVTZ-JKFIT

    Orbital Energies [Eh]
    ---------------------

    Doubly Occupied:

       1A    -20.591829     2A    -20.581180     3A    -20.577320
       4A    -20.569109     5A     -1.375132     6A     -1.354893
       7A     -1.353219     8A     -1.347433     9A     -0.736026
      10A     -0.729974    11A     -0.725121    12A     -0.718890
      13A     -0.612363    14A     -0.585361    15A     -0.584996
      16A     -0.572443    17A     -0.533026    18A     -0.519361
      19A     -0.516394    20A     -0.511665

  @DF-RHF Final Energy:  -304.22675700003379

   => Energetics <=

    Nuclear Repulsion Energy =            106.2302826472771073
    One-Electron Energy =                -630.7226109331946873
    Two-Electron Energy =                 220.2655712858837660
    Total Energy =                       -304.2267570000337855
 Dipole X            :         24.5091849          -24.8114559           -0.3022709
 Dipole Y            :        -84.7760477           84.5864147           -0.1896330
 Dipole Z            :         10.7838975          -11.6615680           -0.8776705
 Magnitude           :                                                    0.9474354

    SAPT Results
  --------------------------------------------------------------------------------------------------------
    Electrostatics                -87.05126494 [mEh]     -54.62549345 [kcal/mol]    -228.55306461 [kJ/mol]
      Elst10,r                    -86.28727125 [mEh]     -54.14608018 [kcal/mol]    -226.54719945 [kJ/mol]
      Elst12,r                     -0.76399369 [mEh]      -0.47941328 [kcal/mol]      -2.00586516 [kJ/mol]

    Exchange                       70.03188658 [mEh]      43.94567229 [kcal/mol]     183.86869288 [kJ/mol]
      Exch10                       62.25129192 [mEh]      39.06327543 [kcal/mol]     163.44074442 [kJ/mol]
      Exch10(S^2)                  61.72373884 [mEh]      38.73223088 [kcal/mol]     162.05565400 [kJ/mol]
      Exch11(S^2)                   2.43673587 [mEh]       1.52907484 [kcal/mol]       6.39764914 [kJ/mol]
      Exch12(S^2)                   5.34385879 [mEh]       3.35332202 [kcal/mol]      14.03029931 [kJ/mol]

    Induction                     -32.63522643 [mEh]     -20.47891376 [kcal/mol]     -85.68377519 [kJ/mol]
      Ind20,r                     -49.82903810 [mEh]     -31.26819348 [kcal/mol]    -130.82612152 [kJ/mol]
      Ind22                        -6.31348814 [mEh]      -3.96177362 [kcal/mol]     -16.57606083 [kJ/mol]
      Exch-Ind20,r                 28.10856364 [mEh]      17.63838998 [kcal/mol]      73.79902366 [kJ/mol]
      Exch-Ind22                    3.56143907 [mEh]       2.23483676 [kcal/mol]       9.35055699 [kJ/mol]
      delta HF,r (2)               -8.16270289 [mEh]      -5.12217340 [kcal/mol]     -21.43117349 [kJ/mol]

    Dispersion                    -23.36669389 [mEh]     -14.66282179 [kcal/mol]     -61.34924635 [kJ/mol]
      Disp20                      -26.62171542 [mEh]     -16.70537863 [kcal/mol]     -69.89530420 [kJ/mol]
      Disp21                        1.70467679 [mEh]       1.06970084 [kcal/mol]       4.47562830 [kJ/mol]
      Disp22 (SDQ)                  0.07084250 [mEh]       0.04445434 [kcal/mol]       0.18599695 [kJ/mol]
      Disp22 (T)                   -4.19113376 [mEh]      -2.62997614 [kcal/mol]     -11.00382018 [kJ/mol]
      Est. Disp22 (T)              -4.81066526 [mEh]      -3.01873802 [kcal/mol]     -12.63039989 [kJ/mol]
      Exch-Disp20                   6.29016750 [mEh]       3.94713970 [kcal/mol]      16.51483250 [kJ/mol]

  Total HF                        -53.91915669 [mEh]     -33.83478164 [kcal/mol]    -141.56472639 [kJ/mol]
  Total SAPT0                     -74.25070461 [mEh]     -46.59302058 [kcal/mol]    -194.94519809 [kJ/mol]
  Total SAPT2                     -69.98615271 [mEh]     -43.91697386 [kcal/mol]    -183.74861863 [kJ/mol]
  Total SAPT2+                    -73.02129868 [mEh]     -45.82155671 [kcal/mol]    -191.71739327 [kJ/mol]

  Special recipe for scaled SAPT0 (see Manual):
    Electrostatics sSAPT0         -86.28727125 [mEh]     -54.14608018 [kcal/mol]    -226.54719945 [kJ/mol]
    Exchange sSAPT0                62.25129192 [mEh]      39.06327543 [kcal/mol]     163.44074442 [kJ/mol]
    Induction sSAPT0              -29.15626764 [mEh]     -18.29583416 [kcal/mol]     -76.54977014 [kJ/mol]
    Dispersion sSAPT0             -20.16887920 [mEh]     -12.65616278 [kcal/mol]     -52.95338506 [kJ/mol]
  Total sSAPT0                    -73.36112618 [mEh]     -46.03480168 [kcal/mol]    -192.60961024 [kJ/mol]
  --------------------------------------------------------------------------------------------------------

*** Psi4 exiting successfully. Buy a developer a beer!
