                               Psi4 1.8.2 release

  ==> Input File <==

--------------------------------------------------------------------------
MEMORY 60 GB

molecule dimer {
-1 1
Cl     0.000000     0.000000     0.000000
--
0 1
O     -1.699511    -2.602859     1.388887
H     -1.009799    -3.281339     1.476309
H     -1.370004    -1.833268     0.834273
O      2.047824    -2.283636     1.627081
H      2.928790    -2.527615     1.228704
H      2.063927    -1.332444     1.617770
O     -2.694511     1.035503     1.396479
H     -3.182629     0.216460     1.160035
H     -1.779856     0.860726     1.190389
O      1.374557    -2.211274    -1.879035
H      1.185050    -3.173037    -1.766271
H      1.030023    -1.776112    -1.054907
O     -1.324787    -2.152761    -2.403691
H     -0.760749    -1.736481    -1.759069
H     -0.832269    -2.768136    -2.931446

units ang
no_reorient
no_com
symmetry c1
}

set {
basis        aug-cc-pVTZ
scf_type     df
}

energy("sapt2+")
--------------------------------------------------------------------------

  //              Dimer HF             //
    Molecular point group: c1
  Charge       = -1
  Multiplicity = 1
  Basis Set: AUG-CC-PVTZ
    Blend: AUG-CC-PVTZ
  Basis Set: (AUG-CC-PVTZ AUX)
    Blend: AUG-CC-PVTZ-JKFIT
  @DF-RHF Final Energy:  -839.91229553716300
    Total Energy =                       -839.9122955371630042
 Dipole X            :         40.2393075          -37.9814920            2.2578155
 Dipole Y            :        157.1388259         -156.9823120            0.1565138
 Dipole Z            :         -2.1333362            1.9531359           -0.1802003
 Magnitude           :                                                    2.2703963
  //            Monomer A HF           //
    Molecular point group: c1
  Multiplicity = 1
  Basis Set: AUG-CC-PVTZ
    Blend: AUG-CC-PVTZ
  Basis Set: (AUG-CC-PVTZ AUX)
    Blend: AUG-CC-PVTZ-JKFIT
  @DF-RHF Final Energy:  -459.57356579361152
    Total Energy =                       -459.5735657936114649
  //            Monomer B HF           //
    Molecular point group: c1

    Geometry (in Angstrom), charge = 0, multiplicity = 1:

       Center              X                  Y                   Z               Mass
    ------------   -----------------  -----------------  -----------------  -----------------
      Gh(CL)          0.000000000000     0.000000000000     0.000000000000    34.968852682000
         O           -1.699511000000    -2.602859000000     1.388887000000    15.994914619570
         H           -1.009799000000    -3.281339000000     1.476309000000     1.007825032230
         H           -1.370004000000    -1.833268000000     0.834273000000     1.007825032230
         O            2.047824000000    -2.283636000000     1.627081000000    15.994914619570
         H            2.928790000000    -2.527615000000     1.228704000000     1.007825032230
         H            2.063927000000    -1.332444000000     1.617770000000     1.007825032230
         O           -2.694511000000     1.035503000000     1.396479000000    15.994914619570
         H           -3.182629000000     0.216460000000     1.160035000000     1.007825032230
         H           -1.779856000000     0.860726000000     1.190389000000     1.007825032230
         O            1.374557000000    -2.211274000000    -1.879035000000    15.994914619570
         H            1.185050000000    -3.173037000000    -1.766271000000     1.007825032230
         H            1.030023000000    -1.776112000000    -1.054907000000     1.007825032230
         O           -1.324787000000    -2.152761000000    -2.403691000000    15.994914619570
         H           -0.760749000000    -1.736481000000    -1.759069000000     1.007825032230
         H           -0.832269000000    -2.768136000000    -2.931446000000     1.007825032230

  Charge       = 0
  Multiplicity = 1
  Basis Set: AUG-CC-PVTZ
    Blend: AUG-CC-PVTZ
  Basis Set: (AUG-CC-PVTZ AUX)
    Blend: AUG-CC-PVTZ-JKFIT

    Orbital Energies [Eh]
    ---------------------

    Doubly Occupied:

       1A    -20.600456     2A    -20.600378     3A    -20.577991
       4A    -20.569680     5A    -20.559342     6A     -1.376867
       7A     -1.372347     8A     -1.348814     9A     -1.348674
      10A     -1.343035    11A     -0.744875    12A     -0.735877
      13A     -0.723975    14A     -0.720874    15A     -0.715495
      16A     -0.615776    17A     -0.609513    18A     -0.589845
      19A     -0.581399    20A     -0.575684    21A     -0.540701
      22A     -0.522846    23A     -0.515600    24A     -0.509755
      25A     -0.505420

  @DF-RHF Final Energy:  -380.27903554821381

   => Energetics <=

    Nuclear Repulsion Energy =            173.5751538256021718
    One-Electron Energy =                -869.8979389756998444
    Two-Electron Energy =                 316.0437496018838033
    Total Energy =                       -380.2790355482138125
 Dipole X            :         40.0076235          -37.9814920            2.0261315
 Dipole Y            :        156.2837890         -156.9823120           -0.6985230
 Dipole Z            :         -2.0970801            1.9531359           -0.1439442
 Magnitude           :                                                    2.1479905

    SAPT Results
  --------------------------------------------------------------------------------------------------------
    Electrostatics                -81.39637274 [mEh]     -51.07699503 [kcal/mol]    -213.70614719 [kJ/mol]
      Elst10,r                    -81.04452232 [mEh]     -50.85620555 [kcal/mol]    -212.78236402 [kJ/mol]
      Elst12,r                     -0.35185043 [mEh]      -0.22078948 [kcal/mol]      -0.92378317 [kJ/mol]

    Exchange                       55.55631161 [mEh]      34.86211186 [kcal/mol]     145.86307603 [kJ/mol]
      Exch10                       48.45297037 [mEh]      30.40469794 [kcal/mol]     127.21325618 [kJ/mol]
      Exch10(S^2)                  47.99990786 [mEh]      30.12039692 [kcal/mol]     126.02374072 [kJ/mol]
      Exch11(S^2)                   2.17641410 [mEh]       1.36572047 [kcal/mol]       5.71417444 [kJ/mol]
      Exch12(S^2)                   4.92692714 [mEh]       3.09169345 [kcal/mol]      12.93564541 [kJ/mol]

    Induction                     -29.81057641 [mEh]     -18.70641912 [kcal/mol]     -78.26765759 [kJ/mol]
      Ind20,r                     -43.02309111 [mEh]     -26.99739726 [kcal/mol]    -112.95711014 [kJ/mol]
      Ind22                        -5.68940483 [mEh]      -3.57015543 [kcal/mol]     -14.93753032 [kJ/mol]
      Exch-Ind20,r                 22.54579118 [mEh]      14.14769756 [kcal/mol]      59.19396658 [kJ/mol]
      Exch-Ind22                    2.98147181 [mEh]       1.87090180 [kcal/mol]       7.82785315 [kJ/mol]
      delta HF,r (2)               -6.62534346 [mEh]      -4.15746579 [kcal/mol]     -17.39483686 [kJ/mol]

    Dispersion                    -21.79135190 [mEh]     -13.67427976 [kcal/mol]     -57.21318652 [kJ/mol]
      Disp20                      -24.26973101 [mEh]     -15.22948614 [kcal/mol]     -63.72017000 [kJ/mol]
      Disp21                        1.67710624 [mEh]       1.05240005 [kcal/mol]       4.40324182 [kJ/mol]
      Disp22 (SDQ)                 -0.08596661 [mEh]      -0.05394486 [kcal/mol]      -0.22570530 [kJ/mol]
      Disp22 (T)                   -3.94708278 [mEh]      -2.47683184 [kcal/mol]     -10.36306442 [kJ/mol]
      Est. Disp22 (T)              -4.55265786 [mEh]      -2.85683594 [kcal/mol]     -11.95300156 [kJ/mol]
      Exch-Disp20                   5.43989735 [mEh]       3.41358712 [kcal/mol]      14.28244851 [kJ/mol]

  Total HF                        -59.69419534 [mEh]     -37.45867310 [kcal/mol]    -156.72708827 [kJ/mol]
  Total SAPT0                     -78.52402901 [mEh]     -49.27457212 [kcal/mol]    -206.16480975 [kJ/mol]
  Total SAPT2                     -74.48047122 [mEh]     -46.73720130 [kcal/mol]    -195.54845024 [kJ/mol]
  Total SAPT2+                    -77.44198944 [mEh]     -48.59558204 [kcal/mol]    -203.32391528 [kJ/mol]

  Special recipe for scaled SAPT0 (see Manual):
    Electrostatics sSAPT0         -81.04452232 [mEh]     -50.85620555 [kcal/mol]    -212.78236402 [kJ/mol]
    Exchange sSAPT0                48.45297037 [mEh]      30.40469794 [kcal/mol]     127.21325618 [kJ/mol]
    Induction sSAPT0              -26.45818150 [mEh]     -16.60275955 [kcal/mol]     -69.46594597 [kJ/mol]
    Dispersion sSAPT0             -18.67433651 [mEh]     -11.71832308 [kcal/mol]     -49.02946375 [kJ/mol]
  Total sSAPT0                    -77.72406996 [mEh]     -48.77259024 [kcal/mol]    -204.06451756 [kJ/mol]
  --------------------------------------------------------------------------------------------------------

*** Psi4 exiting successfully. Buy a developer a beer!
