                               Psi4 1.8.2 release

  ==> Input File <==

--------------------------------------------------------------------------
MEMORY 60 GB

molecule dimer {
-1 1
Cl     0.000000     0.000000     0.000000
--
0 1
O      2.141828    -1.926721     1.172770
H      2.506845    -2.704525     0.813382
H      1.387579    -1.666552     0.663666
O     -1.667403    -0.134156    -2.964265
H     -1.403386     0.216697    -2.118502
H     -1.930230     0.658899    -3.498868
O      1.685848     1.175691    -2.172477
H      2.426841     0.570382    -2.393280
H      1.275175     0.748865    -1.444869
O     -2.150305    -0.295435     2.705843
H     -1.521020    -0.158825     2.012721
H     -1.597698    -0.371338     3.511263
O     -2.367779    -2.039496    -0.941391
H     -1.594146    -1.458780    -0.729704
H     -2.441774    -2.608355    -0.193390

units ang
no_reorient
no_com
symmetry c1
}

set {
basis        aug-cc-pVTZ
scf_type     df
}

energy("sapt2+")
--------------------------------------------------------------------------

  //              Dimer HF             //
    Molecular point group: c1
  Charge       = -1
  Multiplicity = 1
  Basis Set: AUG-CC-PVTZ
    Blend: AUG-CC-PVTZ
  Basis Set: (AUG-CC-PVTZ AUX)
    Blend: AUG-CC-PVTZ-JKFIT
  @DF-RHF Final Energy:  -839.92235018943927
    Total Energy =                       -839.9223501894392712
 Dipole X            :         42.3652353          -41.1096728            1.2555624
 Dipole Y            :         61.6159239          -61.4812342            0.1346898
 Dipole Z            :         40.5034664          -39.6346263            0.8688401
 Magnitude           :                                                    1.5327953
  //            Monomer A HF           //
    Molecular point group: c1
  Multiplicity = 1
  Basis Set: AUG-CC-PVTZ
    Blend: AUG-CC-PVTZ
  Basis Set: (AUG-CC-PVTZ AUX)
    Blend: AUG-CC-PVTZ-JKFIT
  @DF-RHF Final Energy:  -459.57358120851825
    Total Energy =                       -459.5735812085182488
  //            Monomer B HF           //
    Molecular point group: c1

    Geometry (in Angstrom), charge = 0, multiplicity = 1:

       Center              X                  Y                   Z               Mass
    ------------   -----------------  -----------------  -----------------  -----------------
      Gh(CL)          0.000000000000     0.000000000000     0.000000000000    34.968852682000
         O            2.141828000000    -1.926721000000     1.172770000000    15.994914619570
         H            2.506845000000    -2.704525000000     0.813382000000     1.007825032230
         H            1.387579000000    -1.666552000000     0.663666000000     1.007825032230
         O           -1.667403000000    -0.134156000000    -2.964265000000    15.994914619570
         H           -1.403386000000     0.216697000000    -2.118502000000     1.007825032230
         H           -1.930230000000     0.658899000000    -3.498868000000     1.007825032230
         O            1.685848000000     1.175691000000    -2.172477000000    15.994914619570
         H            2.426841000000     0.570382000000    -2.393280000000     1.007825032230
         H            1.275175000000     0.748865000000    -1.444869000000     1.007825032230
         O           -2.150305000000    -0.295435000000     2.705843000000    15.994914619570
         H           -1.521020000000    -0.158825000000     2.012721000000     1.007825032230
         H           -1.597698000000    -0.371338000000     3.511263000000     1.007825032230
         O           -2.367779000000    -2.039496000000    -0.941391000000    15.994914619570
         H           -1.594146000000    -1.458780000000    -0.729704000000     1.007825032230
         H           -2.441774000000    -2.608355000000    -0.193390000000     1.007825032230

  Charge       = 0
  Multiplicity = 1
  Basis Set: AUG-CC-PVTZ
    Blend: AUG-CC-PVTZ
  Basis Set: (AUG-CC-PVTZ AUX)
    Blend: AUG-CC-PVTZ-JKFIT

    Orbital Energies [Eh]
    ---------------------

    Doubly Occupied:

       1A    -20.585689     2A    -20.580859     3A    -20.579717
       4A    -20.570519     5A    -20.565060     6A     -1.383629
       7A     -1.365373     8A     -1.363819     9A     -1.352128
      10A     -1.341603    11A     -0.762163    12A     -0.726425
      13A     -0.725819    14A     -0.723438    15A     -0.698735
      16A     -0.602261    17A     -0.598638    18A     -0.596930
      19A     -0.586742    20A     -0.573022    21A     -0.534347
      22A     -0.523011    23A     -0.522395    24A     -0.510967
      25A     -0.502152

  @DF-RHF Final Energy:  -380.28535935379978

   => Energetics <=

    Nuclear Repulsion Energy =            162.5934888690543971
    One-Electron Energy =                -848.0068067086615429
    Two-Electron Energy =                 305.1279584858073122
    Total Energy =                       -380.2853593537997767
 Dipole X            :         42.2476659          -41.1096728            1.1379931
 Dipole Y            :         61.1874707          -61.4812342           -0.2937634
 Dipole Z            :         40.2261867          -39.6346263            0.5915603
 Magnitude           :                                                    1.3157769

    SAPT Results
  --------------------------------------------------------------------------------------------------------
    Electrostatics               -102.50409844 [mEh]     -64.32229287 [kcal/mol]    -269.12447337 [kJ/mol]
      Elst10,r                   -101.80193217 [mEh]     -63.88167689 [kcal/mol]    -267.28093610 [kJ/mol]
      Elst12,r                     -0.70216626 [mEh]      -0.44061598 [kcal/mol]      -1.84353727 [kJ/mol]

    Exchange                       80.52107688 [mEh]      50.52773858 [kcal/mol]     211.40805821 [kJ/mol]
      Exch10                       71.27610060 [mEh]      44.72642838 [kcal/mol]     187.13537634 [kJ/mol]
      Exch10(S^2)                  70.68252539 [mEh]      44.35395431 [kcal/mol]     185.57694485 [kJ/mol]
      Exch11(S^2)                   3.08160487 [mEh]       1.93373625 [kcal/mol]       8.09075247 [kJ/mol]
      Exch12(S^2)                   6.16337141 [mEh]       3.86757395 [kcal/mol]      16.18192940 [kJ/mol]

    Induction                     -36.08222624 [mEh]     -22.64193880 [kcal/mol]     -94.73387195 [kJ/mol]
      Ind20,r                     -56.37560338 [mEh]     -35.37622521 [kcal/mol]    -148.01412628 [kJ/mol]
      Ind22                        -7.25221547 [mEh]      -4.55083391 [kcal/mol]     -19.04068909 [kJ/mol]
      Exch-Ind20,r                 31.51237901 [mEh]      19.77431637 [kcal/mol]      82.73573968 [kJ/mol]
      Exch-Ind22                    4.05378477 [mEh]       2.54378835 [kcal/mol]      10.64321045 [kJ/mol]
      delta HF,r (2)               -8.02057117 [mEh]      -5.03298440 [kcal/mol]     -21.05800671 [kJ/mol]

    Dispersion                    -27.38912517 [mEh]     -17.18693553 [kcal/mol]     -71.91013824 [kJ/mol]
      Disp20                      -31.15244219 [mEh]     -19.54845260 [kcal/mol]     -81.79072569 [kJ/mol]
      Disp21                        2.02888568 [mEh]       1.27314498 [kcal/mol]       5.32683861 [kJ/mol]
      Disp22 (SDQ)                  0.05180049 [mEh]       0.03250530 [kcal/mol]       0.13600217 [kJ/mol]
      Disp22 (T)                   -4.90151454 [mEh]      -3.07574681 [kcal/mol]     -12.86892466 [kJ/mol]
      Est. Disp22 (T)              -5.62338236 [mEh]      -3.52872570 [kcal/mol]     -14.76418834 [kJ/mol]
      Exch-Disp20                   7.30601320 [mEh]       4.58459250 [kcal/mol]      19.18193502 [kJ/mol]

  Total HF                        -63.40962712 [mEh]     -39.79014175 [kcal/mol]    -166.48195307 [kJ/mol]
  Total SAPT0                     -87.25605611 [mEh]     -54.75400185 [kcal/mol]    -229.09074375 [kJ/mol]
  Total SAPT2                     -81.91167679 [mEh]     -51.40035320 [kcal/mol]    -215.05907778 [kJ/mol]
  Total SAPT2+                    -85.45437298 [mEh]     -53.62342862 [kcal/mol]    -224.36042534 [kJ/mol]

  Special recipe for scaled SAPT0 (see Manual):
    Electrostatics sSAPT0        -101.80193217 [mEh]     -63.88167689 [kcal/mol]    -267.28093610 [kJ/mol]
    Exchange sSAPT0                71.27610060 [mEh]      44.72642838 [kcal/mol]     187.13537634 [kJ/mol]
    Induction sSAPT0              -32.08320928 [mEh]     -20.13251777 [kcal/mol]     -84.23445435 [kJ/mol]
    Dispersion sSAPT0             -23.66081641 [mEh]     -14.84738645 [kcal/mol]     -62.12146492 [kJ/mol]
  Total sSAPT0                    -86.26985726 [mEh]     -54.13515273 [kcal/mol]    -226.50147904 [kJ/mol]
  --------------------------------------------------------------------------------------------------------

*** Psi4 exiting successfully. Buy a developer a beer!
