                               Psi4 1.8.2 release

  ==> Input File <==

--------------------------------------------------------------------------
MEMORY 60 GB

molecule dimer {
-1 1
Cl     0.000000     0.000000     0.000000
--
0 1
O     -1.646482     1.636033    -2.118452
H     -1.306755     2.527241    -2.068860
H     -1.347572     1.202892    -1.318347
O      0.358450    -3.254429     0.454156
H      0.170382    -2.323902     0.612073
H     -0.522232    -3.667292     0.173894
O     -1.946055    -0.590932     2.381757
H     -1.388639    -0.387392     1.592721
H     -2.499547     0.181910     2.276099
O      2.703315     1.660936     0.446614
H      1.911369     1.537530    -0.062756
H      3.335061     2.181112     0.003027

units ang
no_reorient
no_com
symmetry c1
}

set {
basis        aug-cc-pVTZ
scf_type     df
}

energy("sapt2+")
--------------------------------------------------------------------------

  //              Dimer HF             //
    Molecular point group: c1
  Charge       = -1
  Multiplicity = 1
  Basis Set: AUG-CC-PVTZ
    Blend: AUG-CC-PVTZ
  Basis Set: (AUG-CC-PVTZ AUX)
    Blend: AUG-CC-PVTZ-JKFIT
  @DF-RHF Final Energy:  -763.85457119604848
    Total Energy =                       -763.8545711960484823
 Dipole X            :         11.1206151          -11.1382518           -0.0176367
 Dipole Y            :          7.3959401           -5.9243613            1.4715788
 Dipole Z            :        -20.7563128           19.8807711           -0.8755417
 Magnitude           :                                                    1.7124334
  //            Monomer A HF           //
    Molecular point group: c1
  Multiplicity = 1
  Basis Set: AUG-CC-PVTZ
    Blend: AUG-CC-PVTZ
  Basis Set: (AUG-CC-PVTZ AUX)
    Blend: AUG-CC-PVTZ-JKFIT
  @DF-RHF Final Energy:  -459.57356100945344
    Total Energy =                       -459.5735610094534422
  //            Monomer B HF           //
    Molecular point group: c1

    Geometry (in Angstrom), charge = 0, multiplicity = 1:

       Center              X                  Y                   Z               Mass
    ------------   -----------------  -----------------  -----------------  -----------------
      Gh(CL)          0.000000000000     0.000000000000     0.000000000000    34.968852682000
         O           -1.646482000000     1.636033000000    -2.118452000000    15.994914619570
         H           -1.306755000000     2.527241000000    -2.068860000000     1.007825032230
         H           -1.347572000000     1.202892000000    -1.318347000000     1.007825032230
         O            0.358450000000    -3.254429000000     0.454156000000    15.994914619570
         H            0.170382000000    -2.323902000000     0.612073000000     1.007825032230
         H           -0.522232000000    -3.667292000000     0.173894000000     1.007825032230
         O           -1.946055000000    -0.590932000000     2.381757000000    15.994914619570
         H           -1.388639000000    -0.387392000000     1.592721000000     1.007825032230
         H           -2.499547000000     0.181910000000     2.276099000000     1.007825032230
         O            2.703315000000     1.660936000000     0.446614000000    15.994914619570
         H            1.911369000000     1.537530000000    -0.062756000000     1.007825032230
         H            3.335061000000     2.181112000000     0.003027000000     1.007825032230

  Charge       = 0
  Multiplicity = 1
  Basis Set: AUG-CC-PVTZ
    Blend: AUG-CC-PVTZ
  Basis Set: (AUG-CC-PVTZ AUX)
    Blend: AUG-CC-PVTZ-JKFIT

    Orbital Energies [Eh]
    ---------------------

    Doubly Occupied:

       1A    -20.589780     2A    -20.587344     3A    -20.572934
       4A    -20.571607     5A     -1.373921     6A     -1.369568
       7A     -1.369244     8A     -1.338155     9A     -0.755188
      10A     -0.740877    11A     -0.706778    12A     -0.701976
      13A     -0.617238    14A     -0.603011    15A     -0.584526
      16A     -0.576241    17A     -0.530434    18A     -0.527276
      19A     -0.521635    20A     -0.507224

  @DF-RHF Final Energy:  -304.22753011102731

   => Energetics <=

    Nuclear Repulsion Energy =            100.3256621749041813
    One-Electron Energy =                -618.8164666432878676
    Two-Electron Energy =                 214.2632743573563516
    Total Energy =                       -304.2275301110273062
 Dipole X            :         10.7490306          -11.1382518           -0.3892211
 Dipole Y            :          7.4727852           -5.9243613            1.5484239
 Dipole Z            :        -20.5916609           19.8807711           -0.7108898
 Magnitude           :                                                    1.7477053

    SAPT Results
  --------------------------------------------------------------------------------------------------------
    Electrostatics                -85.08788808 [mEh]     -53.39345587 [kcal/mol]    -223.39821938 [kJ/mol]
      Elst10,r                    -84.34427468 [mEh]     -52.92683142 [kcal/mol]    -221.44586265 [kJ/mol]
      Elst12,r                     -0.74361340 [mEh]      -0.46662446 [kcal/mol]      -1.95235672 [kJ/mol]

    Exchange                       67.89913458 [mEh]      42.60735021 [kcal/mol]     178.26915329 [kJ/mol]
      Exch10                       60.13783561 [mEh]      37.73706158 [kcal/mol]     157.89186563 [kJ/mol]
      Exch10(S^2)                  59.72867328 [mEh]      37.48030834 [kcal/mol]     156.81761008 [kJ/mol]
      Exch11(S^2)                   2.52323090 [mEh]       1.58335130 [kcal/mol]       6.62474182 [kJ/mol]
      Exch12(S^2)                   5.23806807 [mEh]       3.28693734 [kcal/mol]      13.75254583 [kJ/mol]

    Induction                     -31.96117477 [mEh]     -20.05593996 [kcal/mol]     -83.91405281 [kJ/mol]
      Ind20,r                     -49.35376195 [mEh]     -30.96995319 [kcal/mol]    -129.57828415 [kJ/mol]
      Ind22                        -6.07321432 [mEh]      -3.81099952 [kcal/mol]     -15.94522201 [kJ/mol]
      Exch-Ind20,r                 27.51357696 [mEh]      17.26503020 [kcal/mol]      72.23688635 [kJ/mol]
      Exch-Ind22                    3.38567605 [mEh]       2.12454379 [kcal/mol]       8.88909124 [kJ/mol]
      delta HF,r (2)               -7.43345150 [mEh]      -4.66456124 [kcal/mol]     -19.51652423 [kJ/mol]

    Dispersion                    -22.98707482 [mEh]     -14.42460722 [kcal/mol]     -60.35255662 [kJ/mol]
      Disp20                      -26.01728077 [mEh]     -16.32609017 [kcal/mol]     -68.30836126 [kJ/mol]
      Disp21                        1.55738968 [mEh]       0.97727678 [kcal/mol]       4.08892605 [kJ/mol]
      Disp22 (SDQ)                  0.05287537 [mEh]       0.03317980 [kcal/mol]       0.13882427 [kJ/mol]
      Disp22 (T)                   -4.07231384 [mEh]      -2.55541552 [kcal/mol]     -10.69185852 [kJ/mol]
      Est. Disp22 (T)              -4.70247610 [mEh]      -2.95084830 [kcal/mol]     -12.34634930 [kJ/mol]
      Exch-Disp20                   6.12241700 [mEh]       3.84187467 [kcal/mol]      16.07440361 [kJ/mol]

  Total HF                        -53.48007557 [mEh]     -33.55925408 [kcal/mol]    -140.41191906 [kJ/mol]
  Total SAPT0                     -73.37493935 [mEh]     -46.04346958 [kcal/mol]    -192.64587671 [kJ/mol]
  Total SAPT2                     -69.04479205 [mEh]     -43.32626113 [kcal/mol]    -181.27707655 [kJ/mol]
  Total SAPT2+                    -72.13700309 [mEh]     -45.26665285 [kcal/mol]    -189.39567553 [kJ/mol]

  Special recipe for scaled SAPT0 (see Manual):
    Electrostatics sSAPT0         -84.34427468 [mEh]     -52.92683142 [kcal/mol]    -221.44586265 [kJ/mol]
    Exchange sSAPT0                60.13783561 [mEh]      37.73706158 [kcal/mol]     157.89186563 [kJ/mol]
    Induction sSAPT0              -28.70432133 [mEh]     -18.01223357 [kcal/mol]     -75.36318526 [kJ/mol]
    Dispersion sSAPT0             -19.76817778 [mEh]     -12.40471884 [kcal/mol]     -51.90134362 [kJ/mol]
  Total sSAPT0                    -72.67893818 [mEh]     -45.60672225 [kcal/mol]    -190.81852590 [kJ/mol]
  --------------------------------------------------------------------------------------------------------

*** Psi4 exiting successfully. Buy a developer a beer!
