                               Psi4 1.8.2 release

  ==> Input File <==

--------------------------------------------------------------------------
MEMORY 60 GB

molecule dimer {
-1 1
Cl     0.000000     0.000000     0.000000
--
0 1
O     -2.041021    -2.196464    -1.333745
H     -1.300794    -2.029781    -0.728894
H     -2.698392    -2.708355    -0.840419
O      0.419223     0.084825    -3.085711
H     -0.280779     0.277678    -3.790691
H      0.077234     0.159042    -2.208543
O      3.090762    -0.717603    -0.627277
H      3.080613    -1.289849    -1.410804
H      2.118014    -0.454394    -0.575587
O      0.777671     3.142833     0.471574
H      1.633570     3.312266     0.051366
H      0.542632     2.198669     0.371825

units ang
no_reorient
no_com
symmetry c1
}

set {
basis        aug-cc-pVTZ
scf_type     df
}

energy("sapt2+")
--------------------------------------------------------------------------

  //              Dimer HF             //
    Molecular point group: c1
  Charge       = -1
  Multiplicity = 1
  Basis Set: AUG-CC-PVTZ
    Blend: AUG-CC-PVTZ
  Basis Set: (AUG-CC-PVTZ AUX)
    Blend: AUG-CC-PVTZ-JKFIT
  @DF-RHF Final Energy:  -763.85470602086514
    Total Energy =                       -763.8547060208651374
 Dipole X            :        -41.2087910           39.9585953           -1.2501957
 Dipole Y            :         -4.5753376            3.7303269           -0.8450106
 Dipole Z            :         86.9497331          -86.4228808            0.5268523
 Magnitude           :                                                    1.5983134
  //            Monomer A HF           //
    Molecular point group: c1
  Multiplicity = 1
  Basis Set: AUG-CC-PVTZ
    Blend: AUG-CC-PVTZ
  Basis Set: (AUG-CC-PVTZ AUX)
    Blend: AUG-CC-PVTZ-JKFIT
  @DF-RHF Final Energy:  -459.57356608254815
    Total Energy =                       -459.5735660825481546
  //            Monomer B HF           //
    Molecular point group: c1

    Geometry (in Angstrom), charge = 0, multiplicity = 1:

       Center              X                  Y                   Z               Mass
    ------------   -----------------  -----------------  -----------------  -----------------
      Gh(CL)          0.000000000000     0.000000000000     0.000000000000    34.968852682000
         O           -2.041021000000    -2.196464000000    -1.333745000000    15.994914619570
         H           -1.300794000000    -2.029781000000    -0.728894000000     1.007825032230
         H           -2.698392000000    -2.708355000000    -0.840419000000     1.007825032230
         O            0.419223000000     0.084825000000    -3.085711000000    15.994914619570
         H           -0.280779000000     0.277678000000    -3.790691000000     1.007825032230
         H            0.077234000000     0.159042000000    -2.208543000000     1.007825032230
         O            3.090762000000    -0.717603000000    -0.627277000000    15.994914619570
         H            3.080613000000    -1.289849000000    -1.410804000000     1.007825032230
         H            2.118014000000    -0.454394000000    -0.575587000000     1.007825032230
         O            0.777671000000     3.142833000000     0.471574000000    15.994914619570
         H            1.633570000000     3.312266000000     0.051366000000     1.007825032230
         H            0.542632000000     2.198669000000     0.371825000000     1.007825032230

  Charge       = 0
  Multiplicity = 1
  Basis Set: AUG-CC-PVTZ
    Blend: AUG-CC-PVTZ
  Basis Set: (AUG-CC-PVTZ AUX)
    Blend: AUG-CC-PVTZ-JKFIT

    Orbital Energies [Eh]
    ---------------------

    Doubly Occupied:

       1A    -20.583175     2A    -20.577870     3A    -20.577828
       4A    -20.571647     5A     -1.360838     6A     -1.350437
       7A     -1.345895     8A     -1.343634     9A     -0.734011
      10A     -0.730298    11A     -0.722634    12A     -0.697092
      13A     -0.593247    14A     -0.590026    15A     -0.576853
      16A     -0.575669    17A     -0.523667    18A     -0.517753
      19A     -0.512259    20A     -0.511278

  @DF-RHF Final Energy:  -304.22727428595203

   => Energetics <=

    Nuclear Repulsion Energy =            106.1577187155342159
    One-Electron Energy =                -630.7777568121904324
    Two-Electron Energy =                 220.3927638107041673
    Total Energy =                       -304.2272742859520349
 Dipole X            :        -40.8273022           39.9585953           -0.8687069
 Dipole Y            :         -4.5146798            3.7303269           -0.7843529
 Dipole Z            :         86.3629025          -86.4228808           -0.0599783
 Magnitude           :                                                    1.1719464

    SAPT Results
  --------------------------------------------------------------------------------------------------------
    Electrostatics                -81.91213839 [mEh]     -51.40064286 [kcal/mol]    -215.06028971 [kJ/mol]
      Elst10,r                    -81.11828953 [mEh]     -50.90249518 [kcal/mol]    -212.97603981 [kJ/mol]
      Elst12,r                     -0.79384886 [mEh]      -0.49814768 [kcal/mol]      -2.08424990 [kJ/mol]

    Exchange                       63.39616669 [mEh]      39.78169520 [kcal/mol]     166.44661272 [kJ/mol]
      Exch10                       56.01076487 [mEh]      35.14728559 [kcal/mol]     147.05624291 [kJ/mol]
      Exch10(S^2)                  55.64889378 [mEh]      34.92020805 [kcal/mol]     146.10615050 [kJ/mol]
      Exch11(S^2)                   2.32803764 [mEh]       1.46086568 [kcal/mol]       6.11226199 [kJ/mol]
      Exch12(S^2)                   5.05736418 [mEh]       3.17354394 [kcal/mol]      13.27810783 [kJ/mol]

    Induction                     -31.42664932 [mEh]     -19.72052018 [kcal/mol]     -82.51065643 [kJ/mol]
      Ind20,r                     -45.69219691 [mEh]     -28.67228644 [kcal/mol]    -119.96484646 [kJ/mol]
      Ind22                        -5.84535822 [mEh]      -3.66801766 [kcal/mol]     -15.34698588 [kJ/mol]
      Exch-Ind20,r                 24.83280547 [mEh]      15.58282069 [kcal/mol]      65.19852177 [kJ/mol]
      Exch-Ind22                    3.17683660 [mEh]       1.99349506 [kcal/mol]       8.34078334 [kJ/mol]
      delta HF,r (2)               -7.89873626 [mEh]      -4.95653184 [kcal/mol]     -20.73812920 [kJ/mol]

    Dispersion                    -22.19564415 [mEh]     -13.92797698 [kcal/mol]     -58.27465568 [kJ/mol]
      Disp20                      -25.07723181 [mEh]     -15.73620053 [kcal/mol]     -65.84026303 [kJ/mol]
      Disp21                        1.55362485 [mEh]       0.97491431 [kcal/mol]       4.07904148 [kJ/mol]
      Disp22 (SDQ)                  0.07342951 [mEh]       0.04607771 [kcal/mol]       0.19278915 [kJ/mol]
      Disp22 (T)                   -3.97130784 [mEh]      -2.49203329 [kcal/mol]     -10.42666729 [kJ/mol]
      Est. Disp22 (T)              -4.56914642 [mEh]      -2.86718267 [kcal/mol]     -11.99629227 [kJ/mol]
      Exch-Disp20                   5.82367972 [mEh]       3.65441420 [kcal/mol]      15.29006900 [kJ/mol]

  Total HF                        -53.86565236 [mEh]     -33.80120717 [kcal/mol]    -141.42425080 [kJ/mol]
  Total SAPT0                     -73.11920445 [mEh]     -45.88299351 [kcal/mol]    -191.97444484 [kJ/mol]
  Total SAPT2                     -69.19617311 [mEh]     -43.42125417 [kcal/mol]    -181.67452746 [kJ/mol]
  Total SAPT2+                    -72.13826517 [mEh]     -45.26744482 [kcal/mol]    -189.39898911 [kJ/mol]

  Special recipe for scaled SAPT0 (see Manual):
    Electrostatics sSAPT0         -81.11828953 [mEh]     -50.90249518 [kcal/mol]    -212.97603981 [kJ/mol]
    Exchange sSAPT0                56.01076487 [mEh]      35.14728559 [kcal/mol]     147.05624291 [kJ/mol]
    Induction sSAPT0              -28.27052575 [mEh]     -17.74002274 [kcal/mol]     -74.22425513 [kJ/mol]
    Dispersion sSAPT0             -19.13920183 [mEh]     -12.01003047 [kcal/mol]     -50.24996748 [kJ/mol]
  Total sSAPT0                    -72.51725224 [mEh]     -45.50526279 [kcal/mol]    -190.39401951 [kJ/mol]
  --------------------------------------------------------------------------------------------------------

*** Psi4 exiting successfully. Buy a developer a beer!
