                               Psi4 1.8.2 release

  ==> Input File <==

--------------------------------------------------------------------------
MEMORY 60 GB

molecule dimer {
-1 1
Cl     0.000000     0.000000     0.000000
--
0 1
O      1.697875     2.812156    -0.064854
H      1.661557     3.150216     0.885145
H      1.369173     1.911949    -0.005570
O      2.612789    -0.037192     1.821798
H      1.866734    -0.055376     1.210788
H      3.305740     0.353047     1.299827
O     -0.939614    -2.784060    -1.739328
H     -1.213754    -3.715577    -1.660327
H     -0.254384    -2.702145    -1.078967
O     -0.798589     1.117862     3.058410
H     -0.409022     0.795271     3.907486
H     -0.301269     0.718251     2.313142
O     -3.076715     0.941408     0.114922
H     -2.926424     0.271835    -0.596134
H     -2.124851     1.261653     0.395401

units ang
no_reorient
no_com
symmetry c1
}

set {
basis        aug-cc-pVTZ
scf_type     df
}

energy("sapt2+")
--------------------------------------------------------------------------

  //              Dimer HF             //
    Molecular point group: c1
  Charge       = -1
  Multiplicity = 1
  Basis Set: AUG-CC-PVTZ
    Blend: AUG-CC-PVTZ
  Basis Set: (AUG-CC-PVTZ AUX)
    Blend: AUG-CC-PVTZ-JKFIT
  @DF-RHF Final Energy:  -839.91254988161586
    Total Energy =                       -839.9125498816158597
 Dipole X            :          6.8405220           -5.7835673            1.0569547
 Dipole Y            :        -36.4827040           34.7530385           -1.7296654
 Dipole Z            :        -61.1528169           60.8461104           -0.3067064
 Magnitude           :                                                    2.0501133
  //            Monomer A HF           //
    Molecular point group: c1
  Multiplicity = 1
  Basis Set: AUG-CC-PVTZ
    Blend: AUG-CC-PVTZ
  Basis Set: (AUG-CC-PVTZ AUX)
    Blend: AUG-CC-PVTZ-JKFIT
  @DF-RHF Final Energy:  -459.57356847489825
    Total Energy =                       -459.5735684748982521
  //            Monomer B HF           //
    Molecular point group: c1

    Geometry (in Angstrom), charge = 0, multiplicity = 1:

       Center              X                  Y                   Z               Mass
    ------------   -----------------  -----------------  -----------------  -----------------
      Gh(CL)          0.000000000000     0.000000000000     0.000000000000    34.968852682000
         O            1.697875000000     2.812156000000    -0.064854000000    15.994914619570
         H            1.661557000000     3.150216000000     0.885145000000     1.007825032230
         H            1.369173000000     1.911949000000    -0.005570000000     1.007825032230
         O            2.612789000000    -0.037192000000     1.821798000000    15.994914619570
         H            1.866734000000    -0.055376000000     1.210788000000     1.007825032230
         H            3.305740000000     0.353047000000     1.299827000000     1.007825032230
         O           -0.939614000000    -2.784060000000    -1.739328000000    15.994914619570
         H           -1.213754000000    -3.715577000000    -1.660327000000     1.007825032230
         H           -0.254384000000    -2.702145000000    -1.078967000000     1.007825032230
         O           -0.798589000000     1.117862000000     3.058410000000    15.994914619570
         H           -0.409022000000     0.795271000000     3.907486000000     1.007825032230
         H           -0.301269000000     0.718251000000     2.313142000000     1.007825032230
         O           -3.076715000000     0.941408000000     0.114922000000    15.994914619570
         H           -2.926424000000     0.271835000000    -0.596134000000     1.007825032230
         H           -2.124851000000     1.261653000000     0.395401000000     1.007825032230

  Charge       = 0
  Multiplicity = 1
  Basis Set: AUG-CC-PVTZ
    Blend: AUG-CC-PVTZ
  Basis Set: (AUG-CC-PVTZ AUX)
    Blend: AUG-CC-PVTZ-JKFIT

    Orbital Energies [Eh]
    ---------------------

    Doubly Occupied:

       1A    -20.597526     2A    -20.589167     3A    -20.584526
       4A    -20.582822     5A    -20.569563     6A     -1.384428
       7A     -1.366369     8A     -1.358114     9A     -1.350163
      10A     -1.318604    11A     -0.745241    12A     -0.726877
      13A     -0.724314    14A     -0.719962    15A     -0.681076
      16A     -0.618358    17A     -0.601963    18A     -0.596632
      19A     -0.584432    20A     -0.564779    21A     -0.540946
      22A     -0.525773    23A     -0.524709    24A     -0.519553
      25A     -0.498349

  @DF-RHF Final Energy:  -380.27922477283306

   => Energetics <=

    Nuclear Repulsion Energy =            158.7500512904113634
    One-Electron Energy =                -840.3100531839747873
    Two-Electron Energy =                 301.2807771207303063
    Total Energy =                       -380.2792247728330608
 Dipole X            :          7.1126350           -5.7835673            1.3290677
 Dipole Y            :        -36.1262833           34.7530385           -1.3732447
 Dipole Z            :        -60.5880915           60.8461104            0.2580190
 Magnitude           :                                                    1.9284179

    SAPT Results
  --------------------------------------------------------------------------------------------------------
    Electrostatics                -86.62491329 [mEh]     -54.35795375 [kcal/mol]    -227.43367850 [kJ/mol]
      Elst10,r                    -85.92399159 [mEh]     -53.91811875 [kcal/mol]    -225.59340884 [kJ/mol]
      Elst12,r                     -0.70092170 [mEh]      -0.43983500 [kcal/mol]      -1.84026966 [kJ/mol]

    Exchange                       64.14869557 [mEh]      40.25391420 [kcal/mol]     168.42237701 [kJ/mol]
      Exch10                       56.10289808 [mEh]      35.20510005 [kcal/mol]     147.29813861 [kJ/mol]
      Exch10(S^2)                  55.63263959 [mEh]      34.91000839 [kcal/mol]     146.06347512 [kJ/mol]
      Exch11(S^2)                   2.49696151 [mEh]       1.56686701 [kcal/mol]       6.55577155 [kJ/mol]
      Exch12(S^2)                   5.54883598 [mEh]       3.48194714 [kcal/mol]      14.56846685 [kJ/mol]

    Induction                     -32.96984610 [mEh]     -20.68889078 [kcal/mol]     -86.56231901 [kJ/mol]
      Ind20,r                     -48.58929472 [mEh]     -30.49024276 [kcal/mol]    -127.57117571 [kJ/mol]
      Ind22                        -6.44080860 [mEh]      -4.04166842 [kcal/mol]     -16.91034066 [kJ/mol]
      Exch-Ind20,r                 25.69857022 [mEh]      16.12609628 [kcal/mol]      67.47158682 [kJ/mol]
      Exch-Ind22                    3.40650288 [mEh]       2.13761283 [kcal/mol]       8.94377207 [kJ/mol]
      delta HF,r (2)               -7.04481587 [mEh]      -4.42068870 [kcal/mol]     -18.49616152 [kJ/mol]

    Dispersion                    -24.38950216 [mEh]     -15.30464367 [kcal/mol]     -64.03462910 [kJ/mol]
      Disp20                      -27.15234231 [mEh]     -17.03835204 [kcal/mol]     -71.28846492 [kJ/mol]
      Disp21                        1.77672687 [mEh]       1.11491294 [kcal/mol]       4.66479575 [kJ/mol]
      Disp22 (SDQ)                 -0.07621721 [mEh]      -0.04782702 [kcal/mol]      -0.20010825 [kJ/mol]
      Disp22 (T)                   -4.39593248 [mEh]      -2.75848928 [kcal/mol]     -11.54151913 [kJ/mol]
      Est. Disp22 (T)              -5.08389614 [mEh]      -3.19019299 [kcal/mol]     -13.34776748 [kJ/mol]
      Exch-Disp20                   6.14622663 [mEh]       3.85681544 [kcal/mol]      16.13691578 [kJ/mol]

  Total HF                        -59.75663388 [mEh]     -37.49785388 [kcal/mol]    -156.89102065 [kJ/mol]
  Total SAPT0                     -80.76274957 [mEh]     -50.67939048 [kcal/mol]    -212.04256978 [kJ/mol]
  Total SAPT2                     -76.45217950 [mEh]     -47.97446693 [kcal/mol]    -200.72516963 [kJ/mol]
  Total SAPT2+                    -79.83556598 [mEh]     -50.09757400 [kcal/mol]    -209.60824960 [kJ/mol]

  Special recipe for scaled SAPT0 (see Manual):
    Electrostatics sSAPT0         -85.92399159 [mEh]     -53.91811875 [kcal/mol]    -225.59340884 [kJ/mol]
    Exchange sSAPT0                56.10289808 [mEh]      35.20510005 [kcal/mol]     147.29813861 [kJ/mol]
    Induction sSAPT0              -29.27833201 [mEh]     -18.37243071 [kcal/mol]     -76.87025010 [kJ/mol]
    Dispersion sSAPT0             -20.84893373 [mEh]     -13.08290343 [kcal/mol]     -54.73886797 [kJ/mol]
  Total sSAPT0                    -79.94835925 [mEh]     -50.16835284 [kcal/mol]    -209.90438830 [kJ/mol]
  --------------------------------------------------------------------------------------------------------

*** Psi4 exiting successfully. Buy a developer a beer!
