                               Psi4 1.8.2 release

  ==> Input File <==

--------------------------------------------------------------------------
MEMORY 60 GB

molecule dimer {
-1 1
Cl     0.000000     0.000000     0.000000
--
0 1
O     -0.280808    -3.080814    -0.219496
H     -0.189651    -2.233915    -0.698426
H     -1.211460    -3.317950    -0.131329
O     -2.481935     1.642067    -1.399642
H     -3.385130     1.319635    -1.209210
H     -2.045854     1.470675    -0.571808
O      3.200063    -0.253611    -0.094584
H      2.299885    -0.264054     0.155672
H      3.393302     0.468831    -0.634648
O     -0.386088     0.401159     3.233560
H     -0.468246     0.509841     2.292034
H      0.523611     0.081762     3.396811
O      1.511570     0.499460    -2.904062
H      2.403978     0.871797    -2.676264
H      0.955551     0.438546    -2.110677

units ang
no_reorient
no_com
symmetry c1
}

set {
basis        aug-cc-pVTZ
scf_type     df
}

energy("sapt2+")
--------------------------------------------------------------------------

  //              Dimer HF             //
    Molecular point group: c1
  Charge       = -1
  Multiplicity = 1
  Basis Set: AUG-CC-PVTZ
    Blend: AUG-CC-PVTZ
  Basis Set: (AUG-CC-PVTZ AUX)
    Blend: AUG-CC-PVTZ-JKFIT
  @DF-RHF Final Energy:  -839.92068512818696
    Total Energy =                       -839.9206851281869604
 Dipole X            :        -28.7524400           27.9271324           -0.8253077
 Dipole Y            :         13.8207897          -13.2068121            0.6139775
 Dipole Z            :         25.5045047          -25.0608619            0.4436428
 Magnitude           :                                                    1.1202322
  //            Monomer A HF           //
    Molecular point group: c1
  Multiplicity = 1
  Basis Set: AUG-CC-PVTZ
    Blend: AUG-CC-PVTZ
  Basis Set: (AUG-CC-PVTZ AUX)
    Blend: AUG-CC-PVTZ-JKFIT
  @DF-RHF Final Energy:  -459.57357179341608
    Total Energy =                       -459.5735717934160789
  //            Monomer B HF           //
    Molecular point group: c1

    Geometry (in Angstrom), charge = 0, multiplicity = 1:

       Center              X                  Y                   Z               Mass
    ------------   -----------------  -----------------  -----------------  -----------------
      Gh(CL)          0.000000000000     0.000000000000     0.000000000000    34.968852682000
         O           -0.280808000000    -3.080814000000    -0.219496000000    15.994914619570
         H           -0.189651000000    -2.233915000000    -0.698426000000     1.007825032230
         H           -1.211460000000    -3.317950000000    -0.131329000000     1.007825032230
         O           -2.481935000000     1.642067000000    -1.399642000000    15.994914619570
         H           -3.385130000000     1.319635000000    -1.209210000000     1.007825032230
         H           -2.045854000000     1.470675000000    -0.571808000000     1.007825032230
         O            3.200063000000    -0.253611000000    -0.094584000000    15.994914619570
         H            2.299885000000    -0.264054000000     0.155672000000     1.007825032230
         H            3.393302000000     0.468831000000    -0.634648000000     1.007825032230
         O           -0.386088000000     0.401159000000     3.233560000000    15.994914619570
         H           -0.468246000000     0.509841000000     2.292034000000     1.007825032230
         H            0.523611000000     0.081762000000     3.396811000000     1.007825032230
         O            1.511570000000     0.499460000000    -2.904062000000    15.994914619570
         H            2.403978000000     0.871797000000    -2.676264000000     1.007825032230
         H            0.955551000000     0.438546000000    -2.110677000000     1.007825032230

  Charge       = 0
  Multiplicity = 1
  Basis Set: AUG-CC-PVTZ
    Blend: AUG-CC-PVTZ
  Basis Set: (AUG-CC-PVTZ AUX)
    Blend: AUG-CC-PVTZ-JKFIT

    Orbital Energies [Eh]
    ---------------------

    Doubly Occupied:

       1A    -20.588135     2A    -20.582330     3A    -20.582070
       4A    -20.578380     5A    -20.577816     6A     -1.383890
       7A     -1.370720     8A     -1.363342     9A     -1.353605
      10A     -1.350713    11A     -0.768165    12A     -0.732337
      13A     -0.732079    14A     -0.728496    15A     -0.725793
      16A     -0.607638    17A     -0.599279    18A     -0.594030
      19A     -0.581456    20A     -0.578409    21A     -0.531791
      22A     -0.528873    23A     -0.523651    24A     -0.518165
      25A     -0.516839

  @DF-RHF Final Energy:  -380.28599669047384

   => Energetics <=

    Nuclear Repulsion Energy =            156.8015633311269426
    One-Electron Energy =                -836.1791115791326092
    Two-Electron Energy =                 299.0915515575318864
    Total Energy =                       -380.2859966904738371
 Dipole X            :        -28.5135130           27.9271324           -0.5863806
 Dipole Y            :         13.7882829          -13.2068121            0.5814707
 Dipole Z            :         25.3986444          -25.0608619            0.3377825
 Magnitude           :                                                    0.8922149

    SAPT Results
  --------------------------------------------------------------------------------------------------------
    Electrostatics                -96.13362044 [mEh]     -60.32475757 [kcal/mol]    -252.39878568 [kJ/mol]
      Elst10,r                    -95.46560125 [mEh]     -59.90556920 [kcal/mol]    -250.64490155 [kJ/mol]
      Elst12,r                     -0.66801919 [mEh]      -0.41918837 [kcal/mol]      -1.75388413 [kJ/mol]

    Exchange                       70.32397462 [mEh]      44.12896031 [kcal/mol]     184.63556993 [kJ/mol]
      Exch10                       61.42280659 [mEh]      38.54339304 [kcal/mol]     161.26555648 [kJ/mol]
      Exch10(S^2)                  61.21345896 [mEh]      38.41202542 [kcal/mol]     160.71591437 [kJ/mol]
      Exch11(S^2)                   2.56737989 [mEh]       1.61105520 [kcal/mol]       6.74065496 [kJ/mol]
      Exch12(S^2)                   6.33378814 [mEh]       3.97451207 [kcal/mol]      16.62935848 [kJ/mol]

    Induction                     -30.18848391 [mEh]     -18.94355965 [kcal/mol]     -79.25985358 [kJ/mol]
      Ind20,r                     -49.79866838 [mEh]     -31.24913619 [kcal/mol]    -130.74638581 [kJ/mol]
      Ind22                        -7.28351720 [mEh]      -4.57047604 [kcal/mol]     -19.12287176 [kJ/mol]
      Exch-Ind20,r                 28.50337451 [mEh]      17.88613754 [kcal/mol]      74.83559946 [kJ/mol]
      Exch-Ind22                    4.16888293 [mEh]       2.61601353 [kcal/mol]      10.94540062 [kJ/mol]
      delta HF,r (2)               -5.77855577 [mEh]      -3.62609849 [kcal/mol]     -15.17159608 [kJ/mol]

    Dispersion                    -25.85710097 [mEh]     -16.22557583 [kcal/mol]     -67.88780925 [kJ/mol]
      Disp20                      -28.91319364 [mEh]     -18.14330293 [kcal/mol]     -75.91157945 [kJ/mol]
      Disp21                        1.67455432 [mEh]       1.05079870 [kcal/mol]       4.39654176 [kJ/mol]
      Disp22 (SDQ)                 -0.09432841 [mEh]      -0.05919197 [kcal/mol]      -0.24765920 [kJ/mol]
      Disp22 (T)                   -4.61779174 [mEh]      -2.89770806 [kcal/mol]     -12.12401053 [kJ/mol]
      Est. Disp22 (T)              -5.33958870 [mEh]      -3.35064250 [kcal/mol]     -14.01908821 [kJ/mol]
      Exch-Disp20                   6.81545546 [mEh]       4.27676287 [kcal/mol]      17.89397585 [kJ/mol]

  Total HF                        -61.11664430 [mEh]     -38.35127330 [kcal/mol]    -160.46172750 [kJ/mol]
  Total SAPT0                     -83.21438248 [mEh]     -52.21781336 [kcal/mol]    -218.47933109 [kJ/mol]
  Total SAPT2                     -78.09586790 [mEh]     -49.00589697 [kcal/mol]    -205.04067293 [kJ/mol]
  Total SAPT2+                    -81.85523070 [mEh]     -51.36493274 [kcal/mol]    -214.91087859 [kJ/mol]

  Special recipe for scaled SAPT0 (see Manual):
    Electrostatics sSAPT0         -95.46560125 [mEh]     -59.90556920 [kcal/mol]    -250.64490155 [kJ/mol]
    Exchange sSAPT0                61.42280659 [mEh]      38.54339304 [kcal/mol]     161.26555648 [kJ/mol]
    Induction sSAPT0              -26.78040709 [mEh]     -16.80495916 [kcal/mol]     -70.31194914 [kJ/mol]
    Dispersion sSAPT0             -22.02757299 [mEh]     -13.82251074 [kcal/mol]     -57.83338493 [kJ/mol]
  Total sSAPT0                    -82.85077475 [mEh]     -51.98964606 [kcal/mol]    -217.52467913 [kJ/mol]
  --------------------------------------------------------------------------------------------------------

*** Psi4 exiting successfully. Buy a developer a beer!
