                               Psi4 1.8.2 release

  ==> Input File <==

--------------------------------------------------------------------------
MEMORY 60 GB

molecule dimer {
-1 1
Cl     0.000000     0.000000     0.000000
--
0 1
O      0.566870    -1.819815     2.698297
H     -0.078974    -2.614193     2.791088
H      0.377088    -1.191194     1.959657
O      2.279576     1.369045    -2.090596
H      1.885928     0.879649    -1.319566
H      2.785146     0.699748    -2.546213
O     -0.408105    -3.449801    -0.045884
H     -0.491537    -2.483954    -0.136913
H     -1.054600    -3.756136    -0.690336
O     -3.121446    -0.979678     0.008183
H     -3.306620    -1.940481     0.152311
H     -2.177854    -0.788117    -0.090022
O     -1.054861     1.302381     3.016395
H     -1.018792     0.388964     2.938793
H     -0.449422     1.623404     2.330560

units ang
no_reorient
no_com
symmetry c1
}

set {
basis        aug-cc-pVTZ
scf_type     df
}

energy("sapt2+")
--------------------------------------------------------------------------

  //              Dimer HF             //
    Molecular point group: c1
  Charge       = -1
  Multiplicity = 1
  Basis Set: AUG-CC-PVTZ
    Blend: AUG-CC-PVTZ
  Basis Set: (AUG-CC-PVTZ AUX)
    Blend: AUG-CC-PVTZ-JKFIT
  @DF-RHF Final Energy:  -839.91985763602042
    Total Energy =                       -839.9198576360204243
 Dipole X            :         33.1133230          -32.9442853            0.1690377
 Dipole Y            :         70.5516703          -71.4415762           -0.8899059
 Dipole Z            :        -65.8805127           64.4028471           -1.4776656
 Magnitude           :                                                    1.7332056
  //            Monomer A HF           //
    Molecular point group: c1
  Multiplicity = 1
  Basis Set: AUG-CC-PVTZ
    Blend: AUG-CC-PVTZ
  Basis Set: (AUG-CC-PVTZ AUX)
    Blend: AUG-CC-PVTZ-JKFIT
  @DF-RHF Final Energy:  -459.57356907803978
    Total Energy =                       -459.5735690780397817
  //            Monomer B HF           //
    Molecular point group: c1

    Geometry (in Angstrom), charge = 0, multiplicity = 1:

       Center              X                  Y                   Z               Mass
    ------------   -----------------  -----------------  -----------------  -----------------
      Gh(CL)          0.000000000000     0.000000000000     0.000000000000    34.968852682000
         O            0.566870000000    -1.819815000000     2.698297000000    15.994914619570
         H           -0.078974000000    -2.614193000000     2.791088000000     1.007825032230
         H            0.377088000000    -1.191194000000     1.959657000000     1.007825032230
         O            2.279576000000     1.369045000000    -2.090596000000    15.994914619570
         H            1.885928000000     0.879649000000    -1.319566000000     1.007825032230
         H            2.785146000000     0.699748000000    -2.546213000000     1.007825032230
         O           -0.408105000000    -3.449801000000    -0.045884000000    15.994914619570
         H           -0.491537000000    -2.483954000000    -0.136913000000     1.007825032230
         H           -1.054600000000    -3.756136000000    -0.690336000000     1.007825032230
         O           -3.121446000000    -0.979678000000     0.008183000000    15.994914619570
         H           -3.306620000000    -1.940481000000     0.152311000000     1.007825032230
         H           -2.177854000000    -0.788117000000    -0.090022000000     1.007825032230
         O           -1.054861000000     1.302381000000     3.016395000000    15.994914619570
         H           -1.018792000000     0.388964000000     2.938793000000     1.007825032230
         H           -0.449422000000     1.623404000000     2.330560000000     1.007825032230

  Charge       = 0
  Multiplicity = 1
  Basis Set: AUG-CC-PVTZ
    Blend: AUG-CC-PVTZ
  Basis Set: (AUG-CC-PVTZ AUX)
    Blend: AUG-CC-PVTZ-JKFIT

    Orbital Energies [Eh]
    ---------------------

    Doubly Occupied:

       1A    -20.603058     2A    -20.592314     3A    -20.588120
       4A    -20.583507     5A    -20.566938     6A     -1.383144
       7A     -1.364388     8A     -1.362811     9A     -1.358653
      10A     -1.340941    11A     -0.747115    12A     -0.738192
      13A     -0.730719    14A     -0.725089    15A     -0.719789
      16A     -0.622551    17A     -0.595751    18A     -0.590824
      19A     -0.588335    20A     -0.571640    21A     -0.542069
      22A     -0.530763    23A     -0.521962    24A     -0.521252
      25A     -0.512679

  @DF-RHF Final Energy:  -380.27378508419417

   => Energetics <=

    Nuclear Repulsion Energy =            161.1798089988612048
    One-Electron Energy =                -844.9019728754324206
    Two-Electron Energy =                 303.4483787923770706
    Total Energy =                       -380.2737850841941736
 Dipole X            :         32.9144273          -32.9442853           -0.0298580
 Dipole Y            :         69.9685562          -71.4415762           -1.4730200
 Dipole Z            :        -65.5534535           64.4028471           -1.1506064
 Magnitude           :                                                    1.8693781

    SAPT Results
  --------------------------------------------------------------------------------------------------------
    Electrostatics                -90.98562275 [mEh]     -57.09434025 [kcal/mol]    -238.88271961 [kJ/mol]
      Elst10,r                    -91.50963533 [mEh]     -57.42316311 [kcal/mol]    -240.25851447 [kJ/mol]
      Elst12,r                      0.52401259 [mEh]       0.32882286 [kcal/mol]       1.37579485 [kJ/mol]

    Exchange                       53.69522717 [mEh]      33.69426374 [kcal/mol]     140.97679950 [kJ/mol]
      Exch10                       46.58696696 [mEh]      29.23376312 [kcal/mol]     122.31406491 [kJ/mol]
      Exch10(S^2)                  46.30167755 [mEh]      29.05474132 [kcal/mol]     121.56503766 [kJ/mol]
      Exch11(S^2)                   2.31439696 [mEh]       1.45230602 [kcal/mol]       6.07644838 [kJ/mol]
      Exch12(S^2)                   4.79386324 [mEh]       3.00819460 [kcal/mol]      12.58628622 [kJ/mol]

    Induction                     -30.36397226 [mEh]     -19.05368026 [kcal/mol]     -79.72059819 [kJ/mol]
      Ind20,r                     -42.04643201 [mEh]     -26.38453443 [kcal/mol]    -110.39289204 [kJ/mol]
      Ind22                        -5.49725827 [mEh]      -3.44958164 [kcal/mol]     -14.43304959 [kJ/mol]
      Exch-Ind20,r                 20.75905022 [mEh]      13.02650068 [kcal/mol]      54.50287885 [kJ/mol]
      Exch-Ind22                    2.71409142 [mEh]       1.70311808 [kcal/mol]       7.12584605 [kJ/mol]
      delta HF,r (2)               -6.29342363 [mEh]      -3.94918295 [kcal/mol]     -16.52338146 [kJ/mol]

    Dispersion                    -22.03323924 [mEh]     -13.82606636 [kcal/mol]     -57.84826165 [kJ/mol]
      Disp20                      -24.08951115 [mEh]     -15.11639646 [kcal/mol]     -63.24700280 [kJ/mol]
      Disp21                        1.44366418 [mEh]       0.90591295 [kcal/mol]       3.79033977 [kJ/mol]
      Disp22 (SDQ)                 -0.08639608 [mEh]      -0.05421436 [kcal/mol]      -0.22683288 [kJ/mol]
      Disp22 (T)                   -3.94174164 [mEh]      -2.47348022 [kcal/mol]     -10.34904124 [kJ/mol]
      Est. Disp22 (T)              -4.56546869 [mEh]      -2.86487485 [kcal/mol]     -11.98663639 [kJ/mol]
      Exch-Disp20                   5.26447250 [mEh]       3.30350637 [kcal/mol]      13.82187065 [kJ/mol]

  Total HF                        -72.50347379 [mEh]     -45.49661668 [kcal/mol]    -190.35784420 [kJ/mol]
  Total SAPT0                     -91.32851243 [mEh]     -57.30950678 [kcal/mol]    -239.78297635 [kJ/mol]
  Total SAPT2                     -86.47940649 [mEh]     -54.26664686 [kcal/mol]    -227.05165045 [kJ/mol]
  Total SAPT2+                    -89.68760708 [mEh]     -56.27982312 [kcal/mol]    -235.47477995 [kJ/mol]

  Special recipe for scaled SAPT0 (see Manual):
    Electrostatics sSAPT0         -91.50963533 [mEh]     -57.42316311 [kcal/mol]    -240.25851447 [kJ/mol]
    Exchange sSAPT0                46.58696696 [mEh]      29.23376312 [kcal/mol]     122.31406491 [kJ/mol]
    Induction sSAPT0              -27.19471339 [mEh]     -17.06494029 [kcal/mol]     -71.39971017 [kJ/mol]
    Dispersion sSAPT0             -18.72712613 [mEh]     -11.75144906 [kcal/mol]     -49.16806287 [kJ/mol]
  Total sSAPT0                    -90.84450788 [mEh]     -57.00578934 [kcal/mol]    -238.51222259 [kJ/mol]
  --------------------------------------------------------------------------------------------------------

*** Psi4 exiting successfully. Buy a developer a beer!
