                               Psi4 1.8.2 release

  ==> Input File <==

--------------------------------------------------------------------------
MEMORY 60 GB

molecule dimer {
-1 1
Cl     0.000000     0.000000     0.000000
--
0 1
O      1.401814     3.004279    -0.293739
H      1.286935     2.071480    -0.547510
H      0.587179     3.446356    -0.499197
O      2.350678    -2.241718     0.338880
H      1.723621    -1.571284     0.204117
H      2.824680    -2.355887    -0.493503
O      1.245199    -0.336761     2.824372
H      0.470260     0.235926     2.905006
H      1.361956    -0.347042     1.858412
O     -1.541109    -2.418693     1.370070
H     -0.925165    -1.895960     0.786732
H     -2.220385    -1.862267     1.722704

units ang
no_reorient
no_com
symmetry c1
}

set {
basis        aug-cc-pVTZ
scf_type     df
}

energy("sapt2+")
--------------------------------------------------------------------------

  //              Dimer HF             //
    Molecular point group: c1
  Charge       = -1
  Multiplicity = 1
  Basis Set: AUG-CC-PVTZ
    Blend: AUG-CC-PVTZ
  Basis Set: (AUG-CC-PVTZ AUX)
    Blend: AUG-CC-PVTZ-JKFIT
  @DF-RHF Final Energy:  -763.85845167835362
    Total Energy =                       -763.8584516783536174
 Dipole X            :        -63.3813448           61.9107103           -1.4706345
 Dipole Y            :         35.7775158          -34.4342531            1.3432627
 Dipole Z            :        -77.3367444           75.3120584           -2.0246860
 Magnitude           :                                                    2.8401539
  //            Monomer A HF           //
    Molecular point group: c1
  Multiplicity = 1
  Basis Set: AUG-CC-PVTZ
    Blend: AUG-CC-PVTZ
  Basis Set: (AUG-CC-PVTZ AUX)
    Blend: AUG-CC-PVTZ-JKFIT
  @DF-RHF Final Energy:  -459.57356157733170
    Total Energy =                       -459.5735615773317022
  //            Monomer B HF           //
    Molecular point group: c1

    Geometry (in Angstrom), charge = 0, multiplicity = 1:

       Center              X                  Y                   Z               Mass
    ------------   -----------------  -----------------  -----------------  -----------------
      Gh(CL)          0.000000000000     0.000000000000     0.000000000000    34.968852682000
         O            1.401814000000     3.004279000000    -0.293739000000    15.994914619570
         H            1.286935000000     2.071480000000    -0.547510000000     1.007825032230
         H            0.587179000000     3.446356000000    -0.499197000000     1.007825032230
         O            2.350678000000    -2.241718000000     0.338880000000    15.994914619570
         H            1.723621000000    -1.571284000000     0.204117000000     1.007825032230
         H            2.824680000000    -2.355887000000    -0.493503000000     1.007825032230
         O            1.245199000000    -0.336761000000     2.824372000000    15.994914619570
         H            0.470260000000     0.235926000000     2.905006000000     1.007825032230
         H            1.361956000000    -0.347042000000     1.858412000000     1.007825032230
         O           -1.541109000000    -2.418693000000     1.370070000000    15.994914619570
         H           -0.925165000000    -1.895960000000     0.786732000000     1.007825032230
         H           -2.220385000000    -1.862267000000     1.722704000000     1.007825032230

  Charge       = 0
  Multiplicity = 1
  Basis Set: AUG-CC-PVTZ
    Blend: AUG-CC-PVTZ
  Basis Set: (AUG-CC-PVTZ AUX)
    Blend: AUG-CC-PVTZ-JKFIT

    Orbital Energies [Eh]
    ---------------------

    Doubly Occupied:

       1A    -20.583605     2A    -20.580163     3A    -20.572855
       4A    -20.572365     5A     -1.374425     6A     -1.366539
       7A     -1.351286     8A     -1.348197     9A     -0.748345
      10A     -0.736501    11A     -0.726916    12A     -0.703120
      13A     -0.596572    14A     -0.595527    15A     -0.589872
      16A     -0.574629    17A     -0.525865    18A     -0.525726
      19A     -0.516022    20A     -0.507342

  @DF-RHF Final Energy:  -304.22548795379623

   => Energetics <=

    Nuclear Repulsion Energy =            110.4173265071205066
    One-Electron Energy =                -639.0938813826769547
    Two-Electron Energy =                 224.4510669217602015
    Total Energy =                       -304.2254879537962324
 Dipole X            :        -63.0376378           61.9107103           -1.1269275
 Dipole Y            :         35.4992545          -34.4342531            1.0650014
 Dipole Z            :        -76.9119074           75.3120584           -1.5998490
 Magnitude           :                                                    2.2279386

    SAPT Results
  --------------------------------------------------------------------------------------------------------
    Electrostatics                -91.65221526 [mEh]     -57.51263337 [kcal/mol]    -240.63285801 [kJ/mol]
      Elst10,r                    -91.79876328 [mEh]     -57.60459364 [kcal/mol]    -241.01761979 [kJ/mol]
      Elst12,r                      0.14654802 [mEh]       0.09196027 [kcal/mol]       0.38476177 [kJ/mol]

    Exchange                       65.93594734 [mEh]      41.37543162 [kcal/mol]     173.11480590 [kJ/mol]
      Exch10                       57.56759987 [mEh]      36.12421430 [kcal/mol]     151.14371264 [kJ/mol]
      Exch10(S^2)                  57.01368429 [mEh]      35.77662703 [kcal/mol]     149.68940749 [kJ/mol]
      Exch11(S^2)                   2.70045779 [mEh]       1.69456285 [kcal/mol]       7.09005096 [kJ/mol]
      Exch12(S^2)                   5.66788968 [mEh]       3.55665447 [kcal/mol]      14.88104230 [kJ/mol]

    Induction                     -28.02682255 [mEh]     -17.58709667 [kcal/mol]     -73.58441246 [kJ/mol]
      Ind20,r                     -45.49031179 [mEh]     -28.54560161 [kcal/mol]    -119.43479714 [kJ/mol]
      Ind22                        -6.90955662 [mEh]      -4.33581224 [kcal/mol]     -18.14103841 [kJ/mol]
      Exch-Ind20,r                 26.68838259 [mEh]      16.74721291 [kcal/mol]      70.07033883 [kJ/mol]
      Exch-Ind22                    4.05371789 [mEh]       2.54374638 [kcal/mol]      10.64303485 [kJ/mol]
      delta HF,r (2)               -6.36905462 [mEh]      -3.99664211 [kcal/mol]     -16.72195059 [kJ/mol]

    Dispersion                    -22.86259198 [mEh]     -14.34649306 [kcal/mol]     -60.02572696 [kJ/mol]
      Disp20                      -25.84219242 [mEh]     -16.21622057 [kcal/mol]     -67.84866685 [kJ/mol]
      Disp21                        1.67616388 [mEh]       1.05180871 [kcal/mol]       4.40076766 [kJ/mol]
      Disp22 (SDQ)                 -0.15358459 [mEh]      -0.09637579 [kcal/mol]      -0.40323630 [kJ/mol]
      Disp22 (T)                   -4.17573401 [mEh]      -2.62031265 [kcal/mol]     -10.96338812 [kJ/mol]
      Est. Disp22 (T)              -4.79183232 [mEh]      -3.00692018 [kcal/mol]     -12.58095401 [kJ/mol]
      Exch-Disp20                   6.24885347 [mEh]       3.92121476 [kcal/mol]      16.40636254 [kJ/mol]

  Total HF                        -59.40214723 [mEh]     -37.27541015 [kcal/mol]    -155.96031605 [kJ/mol]
  Total SAPT0                     -78.99548617 [mEh]     -49.57041596 [kcal/mol]    -207.40262037 [kJ/mol]
  Total SAPT2                     -73.33642941 [mEh]     -46.01930423 [kcal/mol]    -192.54476890 [kJ/mol]
  Total SAPT2+                    -76.60568244 [mEh]     -48.07079148 [kcal/mol]    -201.12819155 [kJ/mol]

  Special recipe for scaled SAPT0 (see Manual):
    Electrostatics sSAPT0         -91.79876328 [mEh]     -57.60459364 [kcal/mol]    -241.01761979 [kJ/mol]
    Exchange sSAPT0                57.56759987 [mEh]      36.12421430 [kcal/mol]     151.14371264 [kJ/mol]
    Induction sSAPT0              -24.38553022 [mEh]     -15.30215124 [kcal/mol]     -64.02420078 [kJ/mol]
    Dispersion sSAPT0             -19.40943179 [mEh]     -12.17960233 [kcal/mol]     -50.95945616 [kJ/mol]
  Total sSAPT0                    -78.02612543 [mEh]     -48.96213291 [kcal/mol]    -204.85756408 [kJ/mol]
  --------------------------------------------------------------------------------------------------------

*** Psi4 exiting successfully. Buy a developer a beer!
