                               Psi4 1.8.2 release

  ==> Input File <==

--------------------------------------------------------------------------
MEMORY 60 GB

molecule dimer {
-1 1
Cl     0.000000     0.000000     0.000000
--
0 1
O     -1.632332     2.490935     1.090048
H     -2.053129     2.113159     1.904687
H     -1.215364     1.757596     0.622949
O      0.950607     2.374464    -2.175994
H      0.927656     1.703640    -1.451191
H      1.486632     2.014327    -2.868406
O      1.822289     1.832252     1.982226
H      1.341000     2.127700     2.740689
H      1.159400     1.352759     1.469391
O      1.460341    -2.851653    -1.369342
H      0.883151    -3.546723    -1.094304
H      1.133759    -1.999688    -1.056883
O     -0.794840    -0.536729    -3.305985
H     -1.209369    -0.160838    -4.088131
H     -0.723789     0.210704    -2.606868

units ang
no_reorient
no_com
symmetry c1
}

set {
basis        aug-cc-pVTZ
scf_type     df
}

energy("sapt2+")
--------------------------------------------------------------------------

  //              Dimer HF             //
    Molecular point group: c1
  Charge       = -1
  Multiplicity = 1
  Basis Set: AUG-CC-PVTZ
    Blend: AUG-CC-PVTZ
  Basis Set: (AUG-CC-PVTZ AUX)
    Blend: AUG-CC-PVTZ-JKFIT
  @DF-RHF Final Energy:  -839.92570653723578
    Total Energy =                       -839.9257065372357829
 Dipole X            :        -31.9345244           30.5728718           -1.3616526
 Dipole Y            :        -61.6645389           60.5596525           -1.1048864
 Dipole Z            :         70.1424438          -69.2781969            0.8642469
 Magnitude           :                                                    1.9549410
  //            Monomer A HF           //
    Molecular point group: c1
  Multiplicity = 1
  Basis Set: AUG-CC-PVTZ
    Blend: AUG-CC-PVTZ
  Basis Set: (AUG-CC-PVTZ AUX)
    Blend: AUG-CC-PVTZ-JKFIT
  @DF-RHF Final Energy:  -459.57357420784479
    Total Energy =                       -459.5735742078448425
  //            Monomer B HF           //
    Molecular point group: c1

    Geometry (in Angstrom), charge = 0, multiplicity = 1:

       Center              X                  Y                   Z               Mass
    ------------   -----------------  -----------------  -----------------  -----------------
      Gh(CL)          0.000000000000     0.000000000000     0.000000000000    34.968852682000
         O           -1.632332000000     2.490935000000     1.090048000000    15.994914619570
         H           -2.053129000000     2.113159000000     1.904687000000     1.007825032230
         H           -1.215364000000     1.757596000000     0.622949000000     1.007825032230
         O            0.950607000000     2.374464000000    -2.175994000000    15.994914619570
         H            0.927656000000     1.703640000000    -1.451191000000     1.007825032230
         H            1.486632000000     2.014327000000    -2.868406000000     1.007825032230
         O            1.822289000000     1.832252000000     1.982226000000    15.994914619570
         H            1.341000000000     2.127700000000     2.740689000000     1.007825032230
         H            1.159400000000     1.352759000000     1.469391000000     1.007825032230
         O            1.460341000000    -2.851653000000    -1.369342000000    15.994914619570
         H            0.883151000000    -3.546723000000    -1.094304000000     1.007825032230
         H            1.133759000000    -1.999688000000    -1.056883000000     1.007825032230
         O           -0.794840000000    -0.536729000000    -3.305985000000    15.994914619570
         H           -1.209369000000    -0.160838000000    -4.088131000000     1.007825032230
         H           -0.723789000000     0.210704000000    -2.606868000000     1.007825032230

  Charge       = 0
  Multiplicity = 1
  Basis Set: AUG-CC-PVTZ
    Blend: AUG-CC-PVTZ
  Basis Set: (AUG-CC-PVTZ AUX)
    Blend: AUG-CC-PVTZ-JKFIT

    Orbital Energies [Eh]
    ---------------------

    Doubly Occupied:

       1A    -20.591063     2A    -20.583072     3A    -20.579469
       4A    -20.575917     5A    -20.563536     6A     -1.364401
       7A     -1.362563     8A     -1.362450     9A     -1.350440
      10A     -1.342630    11A     -0.735079    12A     -0.731063
      13A     -0.730363    14A     -0.725076    15A     -0.712811
      16A     -0.598069    17A     -0.594151    18A     -0.592722
      19A     -0.580936    20A     -0.573225    21A     -0.529735
      22A     -0.525121    23A     -0.517868    24A     -0.513516
      25A     -0.507754

  @DF-RHF Final Energy:  -380.28500538427488

   => Energetics <=

    Nuclear Repulsion Energy =            160.6477972946197212
    One-Electron Energy =                -844.1795394298076189
    Two-Electron Energy =                 303.2467367509129872
    Total Energy =                       -380.2850053842748821
 Dipole X            :        -31.8184072           30.5728718           -1.2455354
 Dipole Y            :        -61.1327325           60.5596525           -0.5730800
 Dipole Z            :         69.9616846          -69.2781969            0.6834877
 Magnitude           :                                                    1.5319708

    SAPT Results
  --------------------------------------------------------------------------------------------------------
    Electrostatics                -91.15564355 [mEh]     -57.20102992 [kcal/mol]    -239.32910918 [kJ/mol]
      Elst10,r                    -90.96094771 [mEh]     -57.07885643 [kcal/mol]    -238.81793532 [kJ/mol]
      Elst12,r                     -0.19469584 [mEh]      -0.12217348 [kcal/mol]      -0.51117386 [kJ/mol]

    Exchange                       60.06609657 [mEh]      37.69204465 [kcal/mol]     157.70351481 [kJ/mol]
      Exch10                       52.50344024 [mEh]      32.94640615 [kcal/mol]     137.84776335 [kJ/mol]
      Exch10(S^2)                  52.09163125 [mEh]      32.68799211 [kcal/mol]     136.76655900 [kJ/mol]
      Exch11(S^2)                   2.45760800 [mEh]       1.54217230 [kcal/mol]       6.45244892 [kJ/mol]
      Exch12(S^2)                   5.10504833 [mEh]       3.20346619 [kcal/mol]      13.40330253 [kJ/mol]

    Induction                     -31.57122437 [mEh]     -19.81124239 [kcal/mol]     -82.89023816 [kJ/mol]
      Ind20,r                     -44.42117591 [mEh]     -27.87470872 [kcal/mol]    -116.62778129 [kJ/mol]
      Ind22                        -5.90379217 [mEh]      -3.70468552 [kcal/mol]     -15.50040421 [kJ/mol]
      Exch-Ind20,r                 22.58761961 [mEh]      14.17394530 [kcal/mol]      59.30378712 [kJ/mol]
      Exch-Ind22                    3.00200544 [mEh]       1.88378685 [kcal/mol]       7.88176420 [kJ/mol]
      delta HF,r (2)               -6.83588134 [mEh]      -4.28958030 [kcal/mol]     -17.94760399 [kJ/mol]

    Dispersion                    -23.28949121 [mEh]     -14.61437638 [kcal/mol]     -61.14655075 [kJ/mol]
      Disp20                      -25.77445315 [mEh]     -16.17371353 [kcal/mol]     -67.67081743 [kJ/mol]
      Disp21                        1.59070074 [mEh]       0.99817978 [kcal/mol]       4.17638422 [kJ/mol]
      Disp22 (SDQ)                 -0.01231649 [mEh]      -0.00772872 [kcal/mol]      -0.03233695 [kJ/mol]
      Disp22 (T)                   -4.15411707 [mEh]      -2.60674782 [kcal/mol]     -10.90663286 [kJ/mol]
      Est. Disp22 (T)              -4.78999778 [mEh]      -3.00576899 [kcal/mol]     -12.57613744 [kJ/mol]
      Exch-Disp20                   5.69657547 [mEh]       3.57465508 [kcal/mol]      14.95635684 [kJ/mol]

  Total HF                        -67.12694512 [mEh]     -42.12279401 [kcal/mol]    -176.24177012 [kJ/mol]
  Total SAPT0                     -87.20482280 [mEh]     -54.72185246 [kcal/mol]    -228.95623071 [kJ/mol]
  Total SAPT2                     -82.73864904 [mEh]     -51.91928612 [kcal/mol]    -217.23029312 [kJ/mol]
  Total SAPT2+                    -85.95026257 [mEh]     -53.93460403 [kcal/mol]    -225.66238328 [kJ/mol]

  Special recipe for scaled SAPT0 (see Manual):
    Electrostatics sSAPT0         -90.96094771 [mEh]     -57.07885643 [kcal/mol]    -238.81793532 [kJ/mol]
    Exchange sSAPT0                52.50344024 [mEh]      32.94640615 [kcal/mol]     137.84776335 [kJ/mol]
    Induction sSAPT0              -28.12949408 [mEh]     -17.65152403 [kcal/mol]     -73.85397654 [kJ/mol]
    Dispersion sSAPT0             -19.94170445 [mEh]     -12.51360846 [kcal/mol]     -52.35693781 [kJ/mol]
  Total sSAPT0                    -86.52870601 [mEh]     -54.29758277 [kcal/mol]    -227.18108632 [kJ/mol]
  --------------------------------------------------------------------------------------------------------

*** Psi4 exiting successfully. Buy a developer a beer!
