                               Psi4 1.8.2 release

  ==> Input File <==

--------------------------------------------------------------------------
MEMORY 60 GB

molecule dimer {
-1 1
Cl     0.000000     0.000000     0.000000
--
0 1
O      2.247823     1.054428     2.091133
H      1.975481     0.561471     1.348335
H      2.892441     0.520458     2.606351
O      0.349162    -2.885324     1.690405
H      0.406239    -3.703972     1.217566
H      0.590132    -2.160564     1.081020
O      1.622947     1.853072    -2.013003
H      2.373746     1.475204    -2.405921
H      1.243024     1.154997    -1.444838

units ang
no_reorient
no_com
symmetry c1
}

set {
basis        aug-cc-pVTZ
scf_type     df
}

energy("sapt2+")
--------------------------------------------------------------------------

  //              Dimer HF             //
    Molecular point group: c1
  Charge       = -1
  Multiplicity = 1
  Basis Set: AUG-CC-PVTZ
    Blend: AUG-CC-PVTZ
  Basis Set: (AUG-CC-PVTZ AUX)
    Blend: AUG-CC-PVTZ-JKFIT
  @DF-RHF Final Energy:  -687.78704269999753
    Total Energy =                       -687.7870426999976416
 Dipole X            :        -81.6603690           81.7127384            0.0523695
 Dipole Y            :          2.3600057           -3.7322053           -1.3721996
 Dipole Z            :        -32.0271634           31.2764659           -0.7506974
 Magnitude           :                                                    1.5649987
  //            Monomer A HF           //
    Molecular point group: c1
  Multiplicity = 1
  Basis Set: AUG-CC-PVTZ
    Blend: AUG-CC-PVTZ
  Basis Set: (AUG-CC-PVTZ AUX)
    Blend: AUG-CC-PVTZ-JKFIT
  @DF-RHF Final Energy:  -459.57354077761073
    Total Energy =                       -459.5735407776107309
  //            Monomer B HF           //
    Molecular point group: c1

    Geometry (in Angstrom), charge = 0, multiplicity = 1:

       Center              X                  Y                   Z               Mass
    ------------   -----------------  -----------------  -----------------  -----------------
      Gh(CL)          0.000000000000     0.000000000000     0.000000000000    34.968852682000
         O            2.247823000000     1.054428000000     2.091133000000    15.994914619570
         H            1.975481000000     0.561471000000     1.348335000000     1.007825032230
         H            2.892441000000     0.520458000000     2.606351000000     1.007825032230
         O            0.349162000000    -2.885324000000     1.690405000000    15.994914619570
         H            0.406239000000    -3.703972000000     1.217566000000     1.007825032230
         H            0.590132000000    -2.160564000000     1.081020000000     1.007825032230
         O            1.622947000000     1.853072000000    -2.013003000000    15.994914619570
         H            2.373746000000     1.475204000000    -2.405921000000     1.007825032230
         H            1.243024000000     1.154997000000    -1.444838000000     1.007825032230

  Charge       = 0
  Multiplicity = 1
  Basis Set: AUG-CC-PVTZ
    Blend: AUG-CC-PVTZ
  Basis Set: (AUG-CC-PVTZ AUX)
    Blend: AUG-CC-PVTZ-JKFIT

    Orbital Energies [Eh]
    ---------------------

    Doubly Occupied:

       1A    -20.578038     2A    -20.572772     3A    -20.570772
       4A     -1.362756     5A     -1.360225     6A     -1.356628
       7A     -0.734412     8A     -0.732016     9A     -0.729263
      10A     -0.589752    11A     -0.587616    12A     -0.581237
      13A     -0.520318    14A     -0.517423    15A     -0.513871

  @DF-RHF Final Energy:  -228.17476159799003

   => Energetics <=

    Nuclear Repulsion Energy =             61.3601885513374299
    One-Electron Energy =                -436.4556977535056035
    Two-Electron Energy =                 146.9207476041781320
    Total Energy =                       -228.1747615979900274
 Dipole X            :        -81.0114387           81.7127384            0.7012998
 Dipole Y            :          2.2780728           -3.7322053           -1.4541325
 Dipole Z            :        -32.0201808           31.2764659           -0.7437148
 Magnitude           :                                                    1.7774798

    SAPT Results
  --------------------------------------------------------------------------------------------------------
    Electrostatics                -54.31697616 [mEh]     -34.08441713 [kcal/mol]    -142.60920125 [kJ/mol]
      Elst10,r                    -53.53284062 [mEh]     -33.59236465 [kcal/mol]    -140.55045368 [kJ/mol]
      Elst12,r                     -0.78413554 [mEh]      -0.49205248 [kcal/mol]      -2.05874757 [kJ/mol]

    Exchange                       40.52475186 [mEh]      25.42966571 [kcal/mol]     106.39772135 [kJ/mol]
      Exch10                       36.02274696 [mEh]      22.60461499 [kcal/mol]      94.57770912 [kJ/mol]
      Exch10(S^2)                  35.75119877 [mEh]      22.43421593 [kcal/mol]      93.86475944 [kJ/mol]
      Exch11(S^2)                   1.23085402 [mEh]       0.77237256 [kcal/mol]       3.23160679 [kJ/mol]
      Exch12(S^2)                   3.27115087 [mEh]       2.05267816 [kcal/mol]       8.58840543 [kJ/mol]

    Induction                     -23.00766445 [mEh]     -14.43752741 [kcal/mol]     -60.40661468 [kJ/mol]
      Ind20,r                     -32.79209466 [mEh]     -20.57735007 [kcal/mol]     -86.09563268 [kJ/mol]
      Ind22                        -3.77226908 [mEh]      -2.36713459 [kcal/mol]      -9.90409112 [kJ/mol]
      Exch-Ind20,r                 17.34097678 [mEh]      10.88162721 [kcal/mol]      45.52872826 [kJ/mol]
      Exch-Ind22                    1.99483538 [mEh]       1.25177810 [kcal/mol]       5.23743957 [kJ/mol]
      delta HF,r (2)               -5.77911286 [mEh]      -3.62644807 [kcal/mol]     -15.17305872 [kJ/mol]

    Dispersion                    -14.62890689 [mEh]      -9.17977766 [kcal/mol]     -38.40818975 [kJ/mol]
      Disp20                      -16.37871574 [mEh]     -10.27779930 [kcal/mol]     -43.00231226 [kJ/mol]
      Disp21                        0.93596909 [mEh]       0.58732947 [kcal/mol]       2.45738649 [kJ/mol]
      Disp22 (SDQ)                  0.05559800 [mEh]       0.03488827 [kcal/mol]       0.14597253 [kJ/mol]
      Disp22 (T)                   -2.54399588 [mEh]      -1.59638151 [kcal/mol]      -6.67926026 [kJ/mol]
      Est. Disp22 (T)              -2.95351053 [mEh]      -1.85335584 [kcal/mol]      -7.75444084 [kJ/mol]
      Exch-Disp20                   3.71175230 [mEh]       2.32915973 [kcal/mol]       9.74520432 [kJ/mol]

  Total HF                        -38.74032440 [mEh]     -24.30992058 [kcal/mol]    -101.71270769 [kJ/mol]
  Total SAPT0                     -51.40728784 [mEh]     -32.25856014 [kcal/mol]    -134.96981562 [kJ/mol]
  Total SAPT2                     -49.46685219 [mEh]     -31.04091838 [kcal/mol]    -129.87520252 [kJ/mol]
  Total SAPT2+                    -51.42879563 [mEh]     -32.27205649 [kcal/mol]    -135.02628434 [kJ/mol]

  Special recipe for scaled SAPT0 (see Manual):
    Electrostatics sSAPT0         -53.53284062 [mEh]     -33.59236465 [kcal/mol]    -140.55045368 [kJ/mol]
    Exchange sSAPT0                36.02274696 [mEh]      22.60461499 [kcal/mol]      94.57770912 [kJ/mol]
    Induction sSAPT0              -20.83208174 [mEh]     -13.07232865 [kcal/mol]     -54.69462307 [kJ/mol]
    Dispersion sSAPT0             -12.58174157 [mEh]      -7.89516203 [kcal/mol]     -33.03335794 [kJ/mol]
  Total sSAPT0                    -50.92391697 [mEh]     -31.95524034 [kcal/mol]    -133.70072558 [kJ/mol]
  --------------------------------------------------------------------------------------------------------

*** Psi4 exiting successfully. Buy a developer a beer!
