                               Psi4 1.8.2 release

  ==> Input File <==

--------------------------------------------------------------------------
MEMORY 60 GB

molecule dimer {
-1 1
Cl     0.000000     0.000000     0.000000
--
0 1
O     -0.817706    -1.131136     2.882151
H     -0.479632    -0.733470     2.050849
H     -1.773167    -1.194569     2.786172
O     -2.015567     2.443093     0.216964
H     -1.560235     3.293927     0.320489
H     -1.315197     1.816524     0.339732
O     -2.013641    -2.278996    -0.054481
H     -2.837161    -1.968892    -0.423141
H     -1.488194    -1.516586     0.086967
O      1.634075     1.411723    -2.619944
H      0.729499     1.577369    -2.303553
H      1.533034     1.888078    -3.433836

units ang
no_reorient
no_com
symmetry c1
}

set {
basis        aug-cc-pVTZ
scf_type     df
}

energy("sapt2+")
--------------------------------------------------------------------------

  //              Dimer HF             //
    Molecular point group: c1
  Charge       = -1
  Multiplicity = 1
  Basis Set: AUG-CC-PVTZ
    Blend: AUG-CC-PVTZ
  Basis Set: (AUG-CC-PVTZ AUX)
    Blend: AUG-CC-PVTZ-JKFIT
  @DF-RHF Final Energy:  -763.85272372217992
    Total Energy =                       -763.8527237221799169
 Dipole X            :         62.3055341          -62.1602071            0.1453271
 Dipole Y            :        -11.2684377           12.6986818            1.4302441
 Dipole Z            :         -6.5752196            5.3312935           -1.2439261
 Magnitude           :                                                    1.9010708
  //            Monomer A HF           //
    Molecular point group: c1
  Multiplicity = 1
  Basis Set: AUG-CC-PVTZ
    Blend: AUG-CC-PVTZ
  Basis Set: (AUG-CC-PVTZ AUX)
    Blend: AUG-CC-PVTZ-JKFIT
  @DF-RHF Final Energy:  -459.57356140944279
    Total Energy =                       -459.5735614094427888
  //            Monomer B HF           //
    Molecular point group: c1

    Geometry (in Angstrom), charge = 0, multiplicity = 1:

       Center              X                  Y                   Z               Mass
    ------------   -----------------  -----------------  -----------------  -----------------
      Gh(CL)          0.000000000000     0.000000000000     0.000000000000    34.968852682000
         O           -0.817706000000    -1.131136000000     2.882151000000    15.994914619570
         H           -0.479632000000    -0.733470000000     2.050849000000     1.007825032230
         H           -1.773167000000    -1.194569000000     2.786172000000     1.007825032230
         O           -2.015567000000     2.443093000000     0.216964000000    15.994914619570
         H           -1.560235000000     3.293927000000     0.320489000000     1.007825032230
         H           -1.315197000000     1.816524000000     0.339732000000     1.007825032230
         O           -2.013641000000    -2.278996000000    -0.054481000000    15.994914619570
         H           -2.837161000000    -1.968892000000    -0.423141000000     1.007825032230
         H           -1.488194000000    -1.516586000000     0.086967000000     1.007825032230
         O            1.634075000000     1.411723000000    -2.619944000000    15.994914619570
         H            0.729499000000     1.577369000000    -2.303553000000     1.007825032230
         H            1.533034000000     1.888078000000    -3.433836000000     1.007825032230

  Charge       = 0
  Multiplicity = 1
  Basis Set: AUG-CC-PVTZ
    Blend: AUG-CC-PVTZ
  Basis Set: (AUG-CC-PVTZ AUX)
    Blend: AUG-CC-PVTZ-JKFIT

    Orbital Energies [Eh]
    ---------------------

    Doubly Occupied:

       1A    -20.590374     2A    -20.582335     3A    -20.575397
       4A    -20.572256     5A     -1.376253     6A     -1.370116
       7A     -1.369830     8A     -1.348224     9A     -0.739634
      10A     -0.735520    11A     -0.716899    12A     -0.708669
      13A     -0.613096    14A     -0.610105    15A     -0.594534
      16A     -0.581621    17A     -0.532865    18A     -0.523550
      19A     -0.523261    20A     -0.509759

  @DF-RHF Final Energy:  -304.23327242194472

   => Energetics <=

    Nuclear Repulsion Energy =            104.8991322605222507
    One-Electron Energy =                -627.9162096714662766
    Two-Electron Energy =                 218.7838049889992931
    Total Energy =                       -304.2332724219447186
 Dipole X            :         61.6318551          -62.1602071           -0.5283519
 Dipole Y            :        -11.2299247           12.6986818            1.4687570
 Dipole Z            :         -6.2610766            5.3312935           -0.9297831
 Magnitude           :                                                    1.8168378

    SAPT Results
  --------------------------------------------------------------------------------------------------------
    Electrostatics                -77.94435435 [mEh]     -48.91082078 [kcal/mol]    -204.64287415 [kJ/mol]
      Elst10,r                    -76.59357791 [mEh]     -48.06319577 [kcal/mol]    -201.09641109 [kJ/mol]
      Elst12,r                     -1.35077644 [mEh]      -0.84762501 [kcal/mol]      -3.54646306 [kJ/mol]

    Exchange                       68.43193800 [mEh]      42.94168941 [kcal/mol]     179.66802848 [kJ/mol]
      Exch10                       61.02121928 [mEh]      38.29139320 [kcal/mol]     160.21118916 [kJ/mol]
      Exch10(S^2)                  60.37366122 [mEh]      37.88504439 [kcal/mol]     158.51102571 [kJ/mol]
      Exch11(S^2)                   2.19986934 [mEh]       1.38043885 [kcal/mol]       5.77575615 [kJ/mol]
      Exch12(S^2)                   5.21084938 [mEh]       3.26985735 [kcal/mol]      13.68108316 [kJ/mol]

    Induction                     -32.99315419 [mEh]     -20.70351682 [kcal/mol]     -86.62351438 [kJ/mol]
      Ind20,r                     -50.67461318 [mEh]     -31.79879985 [kcal/mol]    -133.04617857 [kJ/mol]
      Ind22                        -6.14792026 [mEh]      -3.85787821 [kcal/mol]     -16.14136242 [kJ/mol]
      Exch-Ind20,r                 28.62063315 [mEh]      17.95971845 [kcal/mol]      75.14346199 [kJ/mol]
      Exch-Ind22                    3.47229825 [mEh]       2.17890005 [kcal/mol]       9.11651779 [kJ/mol]
      delta HF,r (2)               -8.26355215 [mEh]      -5.18545726 [kcal/mol]     -21.69595318 [kJ/mol]

    Dispersion                    -22.35518545 [mEh]     -14.02809066 [kcal/mol]     -58.69353132 [kJ/mol]
      Disp20                      -25.50268725 [mEh]     -16.00317786 [kcal/mol]     -66.95729615 [kJ/mol]
      Disp21                        1.66142077 [mEh]       1.04255727 [kcal/mol]       4.36205962 [kJ/mol]
      Disp22 (SDQ)                  0.04479189 [mEh]       0.02810734 [kcal/mol]       0.11760110 [kJ/mol]
      Disp22 (T)                   -3.96651058 [mEh]      -2.48902297 [kcal/mol]     -10.41407209 [kJ/mol]
      Est. Disp22 (T)              -4.56470713 [mEh]      -2.86439697 [kcal/mol]     -11.98463691 [kJ/mol]
      Exch-Disp20                   6.00599626 [mEh]       3.76881956 [kcal/mol]      15.76874102 [kJ/mol]

  Total HF                        -45.88989079 [mEh]     -28.79634122 [kcal/mol]    -120.48389168 [kJ/mol]
  Total SAPT0                     -65.38658178 [mEh]     -41.03069952 [kcal/mol]    -171.67244680 [kJ/mol]
  Total SAPT2                     -62.00226152 [mEh]     -38.90700650 [kcal/mol]    -162.78691518 [kJ/mol]
  Total SAPT2+                    -64.86075598 [mEh]     -40.70073886 [kcal/mol]    -170.29189137 [kJ/mol]

  Special recipe for scaled SAPT0 (see Manual):
    Electrostatics sSAPT0         -76.59357791 [mEh]     -48.06319577 [kcal/mol]    -201.09641109 [kJ/mol]
    Exchange sSAPT0                61.02121928 [mEh]      38.29139320 [kcal/mol]     160.21118916 [kJ/mol]
    Induction sSAPT0              -29.38667824 [mEh]     -18.44041900 [kcal/mol]     -77.15471309 [kJ/mol]
    Dispersion sSAPT0             -19.30135271 [mEh]     -12.11178168 [kcal/mol]     -50.67569455 [kJ/mol]
  Total sSAPT0                    -64.26038957 [mEh]     -40.32400324 [kcal/mol]    -168.71562957 [kJ/mol]
  --------------------------------------------------------------------------------------------------------

*** Psi4 exiting successfully. Buy a developer a beer!
