                               Psi4 1.8.2 release

  ==> Input File <==

--------------------------------------------------------------------------
MEMORY 60 GB

molecule dimer {
-1 1
Cl     0.000000     0.000000     0.000000
--
0 1
O      0.312084    -2.150104    -2.377592
H     -0.296467    -2.021026    -3.090852
H     -0.022577    -1.598504    -1.659883
O      1.889572     0.729427    -2.641984
H      2.634422     0.109919    -2.606851
H      1.389837     0.523187    -1.827466
O     -2.762003     1.925216     0.336061
H     -2.814583     2.737091    -0.091539
H     -1.965756     1.584775    -0.015239
O      0.811586     2.751185     1.027694
H      1.119303     3.426267     0.397995
H      0.691782     1.988673     0.474040
O      2.965938    -0.228637     0.943152
H      2.234889     0.224653     0.518219
H      2.499928    -0.824590     1.525148

units ang
no_reorient
no_com
symmetry c1
}

set {
basis        aug-cc-pVTZ
scf_type     df
}

energy("sapt2+")
--------------------------------------------------------------------------

  //              Dimer HF             //
    Molecular point group: c1
  Charge       = -1
  Multiplicity = 1
  Basis Set: AUG-CC-PVTZ
    Blend: AUG-CC-PVTZ
  Basis Set: (AUG-CC-PVTZ AUX)
    Blend: AUG-CC-PVTZ-JKFIT
  @DF-RHF Final Energy:  -839.93066698990663
    Total Energy =                       -839.9306669899066264
 Dipole X            :        -60.0154648           58.9749395           -1.0405253
 Dipole Y            :        -57.6751354           57.3855797           -0.2895557
 Dipole Z            :         52.8315794          -53.0593144           -0.2277350
 Magnitude           :                                                    1.1038109
  //            Monomer A HF           //
    Molecular point group: c1
  Multiplicity = 1
  Basis Set: AUG-CC-PVTZ
    Blend: AUG-CC-PVTZ
  Basis Set: (AUG-CC-PVTZ AUX)
    Blend: AUG-CC-PVTZ-JKFIT
  @DF-RHF Final Energy:  -459.57358140702036
    Total Energy =                       -459.5735814070203560
  //            Monomer B HF           //
    Molecular point group: c1

    Geometry (in Angstrom), charge = 0, multiplicity = 1:

       Center              X                  Y                   Z               Mass
    ------------   -----------------  -----------------  -----------------  -----------------
      Gh(CL)          0.000000000000     0.000000000000     0.000000000000    34.968852682000
         O            0.312084000000    -2.150104000000    -2.377592000000    15.994914619570
         H           -0.296467000000    -2.021026000000    -3.090852000000     1.007825032230
         H           -0.022577000000    -1.598504000000    -1.659883000000     1.007825032230
         O            1.889572000000     0.729427000000    -2.641984000000    15.994914619570
         H            2.634422000000     0.109919000000    -2.606851000000     1.007825032230
         H            1.389837000000     0.523187000000    -1.827466000000     1.007825032230
         O           -2.762003000000     1.925216000000     0.336061000000    15.994914619570
         H           -2.814583000000     2.737091000000    -0.091539000000     1.007825032230
         H           -1.965756000000     1.584775000000    -0.015239000000     1.007825032230
         O            0.811586000000     2.751185000000     1.027694000000    15.994914619570
         H            1.119303000000     3.426267000000     0.397995000000     1.007825032230
         H            0.691782000000     1.988673000000     0.474040000000     1.007825032230
         O            2.965938000000    -0.228637000000     0.943152000000    15.994914619570
         H            2.234889000000     0.224653000000     0.518219000000     1.007825032230
         H            2.499928000000    -0.824590000000     1.525148000000     1.007825032230

  Charge       = 0
  Multiplicity = 1
  Basis Set: AUG-CC-PVTZ
    Blend: AUG-CC-PVTZ
  Basis Set: (AUG-CC-PVTZ AUX)
    Blend: AUG-CC-PVTZ-JKFIT

    Orbital Energies [Eh]
    ---------------------

    Doubly Occupied:

       1A    -20.590490     2A    -20.584110     3A    -20.583153
       4A    -20.582157     5A    -20.572566     6A     -1.382251
       7A     -1.374896     8A     -1.370596     9A     -1.370141
      10A     -1.359838    11A     -0.739222    12A     -0.736573
      13A     -0.735165    14A     -0.725105    15A     -0.720221
      16A     -0.608750    17A     -0.606511    18A     -0.605106
      19A     -0.599938    20A     -0.598403    21A     -0.534331
      22A     -0.534032    23A     -0.524682    24A     -0.521367
      25A     -0.515114

  @DF-RHF Final Energy:  -380.28939696997497

   => Energetics <=

    Nuclear Repulsion Energy =            166.4963035690473987
    One-Electron Energy =                -855.4219636124566932
    Two-Electron Energy =                 308.6362630734342929
    Total Energy =                       -380.2893969699749732
 Dipole X            :        -59.5157957           58.9749395           -0.5408562
 Dipole Y            :        -57.2964764           57.3855797            0.0891033
 Dipole Z            :         52.4191674          -53.0593144           -0.6401470
 Magnitude           :                                                    0.8427651

    SAPT Results
  --------------------------------------------------------------------------------------------------------
    Electrostatics               -106.95496287 [mEh]     -67.11525247 [kcal/mol]    -280.81021632 [kJ/mol]
      Elst10,r                   -106.37825247 [mEh]     -66.75336123 [kcal/mol]    -279.29606338 [kJ/mol]
      Elst12,r                     -0.57671040 [mEh]      -0.36189124 [kcal/mol]      -1.51415294 [kJ/mol]

    Exchange                       82.19961652 [mEh]      51.58103811 [kcal/mol]     215.81506344 [kJ/mol]
      Exch10                       72.57920012 [mEh]      45.54413567 [kcal/mol]     190.55666366 [kJ/mol]
      Exch10(S^2)                  71.80659663 [mEh]      45.05931966 [kcal/mol]     188.52819347 [kJ/mol]
      Exch11(S^2)                   3.19334362 [mEh]       2.00385338 [kcal/mol]       8.38412252 [kJ/mol]
      Exch12(S^2)                   6.42707278 [mEh]       4.03304906 [kcal/mol]      16.87427726 [kJ/mol]

    Induction                     -37.24781564 [mEh]     -23.37335719 [kcal/mol]     -97.79412649 [kJ/mol]
      Ind20,r                     -57.94176367 [mEh]     -36.35900563 [kcal/mol]    -152.12607956 [kJ/mol]
      Ind22                        -7.56029479 [mEh]      -4.74415660 [kcal/mol]     -19.84955123 [kJ/mol]
      Exch-Ind20,r                 32.20424578 [mEh]      20.20846932 [kcal/mol]      84.55223565 [kJ/mol]
      Exch-Ind22                    4.20203970 [mEh]       2.63681972 [kcal/mol]      11.03245372 [kJ/mol]
      delta HF,r (2)               -8.15204267 [mEh]      -5.11548401 [kcal/mol]     -21.40318508 [kJ/mol]

    Dispersion                    -28.26250627 [mEh]     -17.73499044 [kcal/mol]     -74.20319998 [kJ/mol]
      Disp20                      -32.09244958 [mEh]     -20.13831615 [kcal/mol]     -84.25871476 [kJ/mol]
      Disp21                        2.21610038 [mEh]       1.39062399 [kcal/mol]       5.81837076 [kJ/mol]
      Disp22 (SDQ)                 -0.04098350 [mEh]      -0.02571753 [kcal/mol]      -0.10760216 [kJ/mol]
      Disp22 (T)                   -5.08462875 [mEh]      -3.19065271 [kcal/mol]     -13.34969095 [kJ/mol]
      Est. Disp22 (T)              -5.84475729 [mEh]      -3.66764057 [kcal/mol]     -15.34540816 [kJ/mol]
      Exch-Disp20                   7.49958372 [mEh]       4.70605983 [kcal/mol]      19.69015434 [kJ/mol]

  Total HF                        -67.68861291 [mEh]     -42.47524587 [kcal/mol]    -177.71642871 [kJ/mol]
  Total SAPT0                     -92.28147877 [mEh]     -57.90750218 [kcal/mol]    -242.28498914 [kJ/mol]
  Total SAPT2                     -86.59602785 [mEh]     -54.33982787 [kcal/mol]    -227.35783980 [kJ/mol]
  Total SAPT2+                    -90.26566826 [mEh]     -56.64256199 [kcal/mol]    -236.99247937 [kJ/mol]

  Special recipe for scaled SAPT0 (see Manual):
    Electrostatics sSAPT0        -106.37825247 [mEh]     -66.75336123 [kcal/mol]    -279.29606338 [kJ/mol]
    Exchange sSAPT0                72.57920012 [mEh]      45.54413567 [kcal/mol]     190.55666366 [kJ/mol]
    Induction sSAPT0              -32.83883058 [mEh]     -20.60667729 [kcal/mol]     -86.21833780 [kJ/mol]
    Dispersion sSAPT0             -24.34817646 [mEh]     -15.27871140 [kcal/mol]     -63.92612850 [kJ/mol]
  Total sSAPT0                    -90.98605939 [mEh]     -57.09461425 [kcal/mol]    -238.88386603 [kJ/mol]
  --------------------------------------------------------------------------------------------------------

*** Psi4 exiting successfully. Buy a developer a beer!
