                               Psi4 1.8.2 release

  ==> Input File <==

--------------------------------------------------------------------------
MEMORY 60 GB

molecule dimer {
-1 1
Cl     0.000000     0.000000     0.000000
--
0 1
O      1.774032    -1.212909    -2.452343
H      1.305888    -0.738993    -1.732187
H      2.508319    -1.629930    -2.012047
O      2.186775     2.588737     0.277671
H      1.476037     1.911683     0.339217
H      3.009960     2.191670    -0.033394
O     -1.686863     2.434953     1.365585
H     -1.173488     2.559282     2.184309
H     -1.383221     1.585374     0.970444
O     -1.491886    -1.582103    -2.320471
H     -1.016194    -0.998340    -1.638782
H     -2.114507    -0.952675    -2.708062
O     -0.791886     2.266519    -2.120884
H     -1.711508     2.191897    -2.087996
H     -0.411803     1.608549    -1.538367

units ang
no_reorient
no_com
symmetry c1
}

set {
basis        aug-cc-pVTZ
scf_type     df
}

energy("sapt2+")
--------------------------------------------------------------------------

  //              Dimer HF             //
    Molecular point group: c1
  Charge       = -1
  Multiplicity = 1
  Basis Set: AUG-CC-PVTZ
    Blend: AUG-CC-PVTZ
  Basis Set: (AUG-CC-PVTZ AUX)
    Blend: AUG-CC-PVTZ-JKFIT
  @DF-RHF Final Energy:  -839.92716781796480
    Total Energy =                       -839.9271678179648006
 Dipole X            :         -0.3908527            0.7764110            0.3855583
 Dipole Y            :        -83.8081362           82.5623102           -1.2458260
 Dipole Z            :         96.9929165          -94.9783928            2.0145236
 Magnitude           :                                                    2.3998006
  //            Monomer A HF           //
    Molecular point group: c1
  Multiplicity = 1
  Basis Set: AUG-CC-PVTZ
    Blend: AUG-CC-PVTZ
  Basis Set: (AUG-CC-PVTZ AUX)
    Blend: AUG-CC-PVTZ-JKFIT
  @DF-RHF Final Energy:  -459.57358403094474
    Total Energy =                       -459.5735840309447440
  //            Monomer B HF           //
    Molecular point group: c1

    Geometry (in Angstrom), charge = 0, multiplicity = 1:

       Center              X                  Y                   Z               Mass
    ------------   -----------------  -----------------  -----------------  -----------------
      Gh(CL)          0.000000000000     0.000000000000     0.000000000000    34.968852682000
         O            1.774032000000    -1.212909000000    -2.452343000000    15.994914619570
         H            1.305888000000    -0.738993000000    -1.732187000000     1.007825032230
         H            2.508319000000    -1.629930000000    -2.012047000000     1.007825032230
         O            2.186775000000     2.588737000000     0.277671000000    15.994914619570
         H            1.476037000000     1.911683000000     0.339217000000     1.007825032230
         H            3.009960000000     2.191670000000    -0.033394000000     1.007825032230
         O           -1.686863000000     2.434953000000     1.365585000000    15.994914619570
         H           -1.173488000000     2.559282000000     2.184309000000     1.007825032230
         H           -1.383221000000     1.585374000000     0.970444000000     1.007825032230
         O           -1.491886000000    -1.582103000000    -2.320471000000    15.994914619570
         H           -1.016194000000    -0.998340000000    -1.638782000000     1.007825032230
         H           -2.114507000000    -0.952675000000    -2.708062000000     1.007825032230
         O           -0.791886000000     2.266519000000    -2.120884000000    15.994914619570
         H           -1.711508000000     2.191897000000    -2.087996000000     1.007825032230
         H           -0.411803000000     1.608549000000    -1.538367000000     1.007825032230

  Charge       = 0
  Multiplicity = 1
  Basis Set: AUG-CC-PVTZ
    Blend: AUG-CC-PVTZ
  Basis Set: (AUG-CC-PVTZ AUX)
    Blend: AUG-CC-PVTZ-JKFIT

    Orbital Energies [Eh]
    ---------------------

    Doubly Occupied:

       1A    -20.588636     2A    -20.585729     3A    -20.583059
       4A    -20.582484     5A    -20.577085     6A     -1.374496
       7A     -1.362645     8A     -1.359387     9A     -1.356125
      10A     -1.350289    11A     -0.750742    12A     -0.734887
      13A     -0.728259    14A     -0.727086    15A     -0.703877
      16A     -0.598515    17A     -0.595116    18A     -0.594376
      19A     -0.589904    20A     -0.583909    21A     -0.529189
      22A     -0.525232    23A     -0.522556    24A     -0.520331
      25A     -0.515314

  @DF-RHF Final Energy:  -380.27416299314524

   => Energetics <=

    Nuclear Repulsion Energy =            168.8531943106808910
    One-Electron Energy =                -860.3762557680512373
    Two-Electron Energy =                 311.2488984642250784
    Total Energy =                       -380.2741629931452394
 Dipole X            :         -0.4415942            0.7764110            0.3348168
 Dipole Y            :        -83.3315443           82.5623102           -0.7692341
 Dipole Z            :         96.3233392          -94.9783928            1.3449463
 Magnitude           :                                                    1.5851511

    SAPT Results
  --------------------------------------------------------------------------------------------------------
    Electrostatics               -114.90408317 [mEh]     -72.10340076 [kcal/mol]    -301.68062879 [kJ/mol]
      Elst10,r                   -115.17718420 [mEh]     -72.27477425 [kcal/mol]    -302.39765545 [kJ/mol]
      Elst12,r                      0.27310103 [mEh]       0.17137348 [kcal/mol]       0.71702666 [kJ/mol]

    Exchange                       82.37441323 [mEh]      51.69072470 [kcal/mol]     216.27399214 [kJ/mol]
      Exch10                       71.77440358 [mEh]      45.03911822 [kcal/mol]     188.44367063 [kJ/mol]
      Exch10(S^2)                  71.15731929 [mEh]      44.65189198 [kcal/mol]     186.82351605 [kJ/mol]
      Exch11(S^2)                   3.91230163 [mEh]       2.45500634 [kcal/mol]      10.27174652 [kJ/mol]
      Exch12(S^2)                   6.68770802 [mEh]       4.19660014 [kcal/mol]      17.55857499 [kJ/mol]

    Induction                     -39.80506663 [mEh]     -24.97805641 [kcal/mol]    -104.50818803 [kJ/mol]
      Ind20,r                     -56.45273302 [mEh]     -35.42462479 [kcal/mol]    -148.21663012 [kJ/mol]
      Ind22                        -7.92056975 [mEh]      -4.97023255 [kcal/mol]     -20.79545300 [kJ/mol]
      Exch-Ind20,r                 29.46104939 [mEh]      18.48708760 [kcal/mol]      77.34997452 [kJ/mol]
      Exch-Ind22                    4.13351638 [mEh]       2.59382069 [kcal/mol]      10.85254575 [kJ/mol]
      delta HF,r (2)               -9.02632963 [mEh]      -5.66410735 [kcal/mol]     -23.69862517 [kJ/mol]

    Dispersion                    -29.00682906 [mEh]     -18.20206004 [kcal/mol]     -76.15741921 [kJ/mol]
      Disp20                      -32.57109694 [mEh]     -20.43867190 [kcal/mol]     -85.51540323 [kJ/mol]
      Disp21                        2.20112411 [mEh]       1.38122623 [kcal/mol]       5.77905056 [kJ/mol]
      Disp22 (SDQ)                 -0.08322438 [mEh]      -0.05222408 [kcal/mol]      -0.21850557 [kJ/mol]
      Disp22 (T)                   -5.32164758 [mEh]      -3.33938427 [kcal/mol]     -13.97198380 [kJ/mol]
      Est. Disp22 (T)              -6.06608579 [mEh]      -3.80652630 [kcal/mol]     -15.92650605 [kJ/mol]
      Exch-Disp20                   7.51245393 [mEh]       4.71413601 [kcal/mol]      19.72394507 [kJ/mol]

  Total HF                        -79.42079387 [mEh]     -49.83730057 [kcal/mol]    -208.51926559 [kJ/mol]
  Total SAPT0                    -104.47943689 [mEh]     -65.56183646 [kcal/mol]    -274.31072375 [kJ/mol]
  Total SAPT2                     -97.39337957 [mEh]     -61.11526836 [kcal/mol]    -255.70628283 [kJ/mol]
  Total SAPT2+                   -101.34156562 [mEh]     -63.59279252 [kcal/mol]    -266.07224388 [kJ/mol]

  Special recipe for scaled SAPT0 (see Manual):
    Electrostatics sSAPT0        -115.17718420 [mEh]     -72.27477425 [kcal/mol]    -302.39765545 [kJ/mol]
    Exchange sSAPT0                71.77440358 [mEh]      45.03911822 [kcal/mol]     188.44367063 [kJ/mol]
    Induction sSAPT0              -35.24487852 [mEh]     -22.11649517 [kcal/mol]     -92.53541580 [kJ/mol]
    Dispersion sSAPT0             -24.86149664 [mEh]     -15.60082467 [kcal/mol]     -65.27385042 [kJ/mol]
  Total sSAPT0                   -103.50915577 [mEh]     -64.95297587 [kcal/mol]    -271.76325103 [kJ/mol]
  --------------------------------------------------------------------------------------------------------

*** Psi4 exiting successfully. Buy a developer a beer!
