                               Psi4 1.8.2 release

  ==> Input File <==

--------------------------------------------------------------------------
MEMORY 60 GB

molecule dimer {
-1 1
Cl     0.000000     0.000000     0.000000
--
0 1
O      1.242748     0.373838    -2.862966
H      1.138454     0.351436    -1.908457
H      2.040450     0.897382    -2.964663
O      0.276420     3.153674    -0.747807
H      0.355701     2.306751    -0.429567
H     -0.187972     3.065629    -1.574720
O      0.006494     0.560028     2.997778
H      0.008803     0.499540     2.013278
H      0.769493     0.188003     3.383861
O      3.047364     0.861757     0.211652
H      2.118883     0.732903     0.199202
H      3.204150     1.194867    -0.687368
O      2.269934    -2.438292    -1.028284
H      2.047839    -1.483943    -0.900356
H      1.445497    -2.891753    -0.787702

units ang
no_reorient
no_com
symmetry c1
}

set {
basis        aug-cc-pVTZ
scf_type     df
}

energy("sapt2+")
--------------------------------------------------------------------------

  //              Dimer HF             //
    Molecular point group: c1
  Charge       = -1
  Multiplicity = 1
  Basis Set: AUG-CC-PVTZ
    Blend: AUG-CC-PVTZ
  Basis Set: (AUG-CC-PVTZ AUX)
    Blend: AUG-CC-PVTZ-JKFIT
  @DF-RHF Final Energy:  -839.92559561729104
    Total Energy =                       -839.9255956172910373
 Dipole X            :       -129.1198164          127.9060712           -1.2137451
 Dipole Y            :        -47.6495619           47.1465031           -0.5030588
 Dipole Z            :         28.0042969          -28.5225964           -0.5182995
 Magnitude           :                                                    1.4124021
  //            Monomer A HF           //
    Molecular point group: c1
  Multiplicity = 1
  Basis Set: AUG-CC-PVTZ
    Blend: AUG-CC-PVTZ
  Basis Set: (AUG-CC-PVTZ AUX)
    Blend: AUG-CC-PVTZ-JKFIT
  @DF-RHF Final Energy:  -459.57358079667716
    Total Energy =                       -459.5735807966772200
  //            Monomer B HF           //
    Molecular point group: c1

    Geometry (in Angstrom), charge = 0, multiplicity = 1:

       Center              X                  Y                   Z               Mass
    ------------   -----------------  -----------------  -----------------  -----------------
      Gh(CL)          0.000000000000     0.000000000000     0.000000000000    34.968852682000
         O            1.242748000000     0.373838000000    -2.862966000000    15.994914619570
         H            1.138454000000     0.351436000000    -1.908457000000     1.007825032230
         H            2.040450000000     0.897382000000    -2.964663000000     1.007825032230
         O            0.276420000000     3.153674000000    -0.747807000000    15.994914619570
         H            0.355701000000     2.306751000000    -0.429567000000     1.007825032230
         H           -0.187972000000     3.065629000000    -1.574720000000     1.007825032230
         O            0.006494000000     0.560028000000     2.997778000000    15.994914619570
         H            0.008803000000     0.499540000000     2.013278000000     1.007825032230
         H            0.769493000000     0.188003000000     3.383861000000     1.007825032230
         O            3.047364000000     0.861757000000     0.211652000000    15.994914619570
         H            2.118883000000     0.732903000000     0.199202000000     1.007825032230
         H            3.204150000000     1.194867000000    -0.687368000000     1.007825032230
         O            2.269934000000    -2.438292000000    -1.028284000000    15.994914619570
         H            2.047839000000    -1.483943000000    -0.900356000000     1.007825032230
         H            1.445497000000    -2.891753000000    -0.787702000000     1.007825032230

  Charge       = 0
  Multiplicity = 1
  Basis Set: AUG-CC-PVTZ
    Blend: AUG-CC-PVTZ
  Basis Set: (AUG-CC-PVTZ AUX)
    Blend: AUG-CC-PVTZ-JKFIT

    Orbital Energies [Eh]
    ---------------------

    Doubly Occupied:

       1A    -20.605868     2A    -20.605522     3A    -20.585884
       4A    -20.580172     5A    -20.578818     6A     -1.396781
       7A     -1.392330     8A     -1.390487     9A     -1.362239
      10A     -1.351740    11A     -0.759944    12A     -0.751977
      13A     -0.747668    14A     -0.746267    15A     -0.712037
      16A     -0.636173    17A     -0.617401    18A     -0.611382
      19A     -0.591439    20A     -0.582588    21A     -0.550133
      22A     -0.546631    23A     -0.534715    24A     -0.522196
      25A     -0.515897

  @DF-RHF Final Energy:  -380.27879236614717

   => Energetics <=

    Nuclear Repulsion Energy =            174.8086259197557695
    One-Electron Energy =                -871.6222476695974137
    Two-Electron Energy =                 316.5348293836945004
    Total Energy =                       -380.2787923661471723
 Dipole X            :       -128.2774435          127.9060712           -0.3713722
 Dipole Y            :        -47.2296923           47.1465031           -0.0831892
 Dipole Z            :         27.9552811          -28.5225964           -0.5673153
 Magnitude           :                                                    0.6831431

    SAPT Results
  --------------------------------------------------------------------------------------------------------
    Electrostatics               -113.19158304 [mEh]     -71.02879071 [kcal/mol]    -297.18446033 [kJ/mol]
      Elst10,r                   -113.29181660 [mEh]     -71.09168822 [kcal/mol]    -297.44762351 [kJ/mol]
      Elst12,r                      0.10023356 [mEh]       0.06289751 [kcal/mol]       0.26316318 [kJ/mol]

    Exchange                       88.54449027 [mEh]      55.56250650 [kcal/mol]     232.47352718 [kJ/mol]
      Exch10                       78.26860081 [mEh]      49.11428851 [kcal/mol]     205.49418313 [kJ/mol]
      Exch10(S^2)                  77.28729210 [mEh]      48.49850799 [kcal/mol]     202.91775745 [kJ/mol]
      Exch11(S^2)                   3.43916416 [mEh]       2.15810809 [kcal/mol]       9.02952425 [kJ/mol]
      Exch12(S^2)                   6.83672530 [mEh]       4.29010990 [kcal/mol]      17.94981980 [kJ/mol]

    Induction                     -41.88538387 [mEh]     -26.28347519 [kcal/mol]    -109.97006019 [kJ/mol]
      Ind20,r                     -63.60366389 [mEh]     -39.91190166 [kcal/mol]    -166.99139654 [kJ/mol]
      Ind22                        -8.25788143 [mEh]      -5.18189883 [kcal/mol]     -21.68106470 [kJ/mol]
      Exch-Ind20,r                 35.21232143 [mEh]      22.09606529 [kcal/mol]      92.44993718 [kJ/mol]
      Exch-Ind22                    4.57173624 [mEh]       2.86880780 [kcal/mol]      12.00309184 [kJ/mol]
      delta HF,r (2)               -9.80789622 [mEh]      -6.15454779 [kcal/mol]     -25.75062797 [kJ/mol]

    Dispersion                    -29.22175918 [mEh]     -18.33693072 [kcal/mol]     -76.72171815 [kJ/mol]
      Disp20                      -33.29925445 [mEh]     -20.89559764 [kcal/mol]     -87.42718051 [kJ/mol]
      Disp21                        2.44327318 [mEh]       1.53317707 [kcal/mol]       6.41481286 [kJ/mol]
      Disp22 (SDQ)                 -0.12651235 [mEh]      -0.07938770 [kcal/mol]      -0.33215812 [kJ/mol]
      Disp22 (T)                   -5.32311004 [mEh]      -3.34030198 [kcal/mol]     -13.97582348 [kJ/mol]
      Est. Disp22 (T)              -6.09046930 [mEh]      -3.82182719 [kcal/mol]     -15.99052495 [kJ/mol]
      Exch-Disp20                   7.85120374 [mEh]       4.92670472 [kcal/mol]      20.61333257 [kJ/mol]

  Total HF                        -73.22245447 [mEh]     -45.94778387 [kcal/mol]    -192.24552772 [kJ/mol]
  Total SAPT0                     -98.67050518 [mEh]     -61.91667678 [kcal/mol]    -259.05937565 [kJ/mol]
  Total SAPT2                     -91.98052734 [mEh]     -57.71865231 [kcal/mol]    -241.49484127 [kJ/mol]
  Total SAPT2+                    -95.75423581 [mEh]     -60.08669013 [kcal/mol]    -251.40271149 [kJ/mol]

  Special recipe for scaled SAPT0 (see Manual):
    Electrostatics sSAPT0        -113.29181660 [mEh]     -71.09168822 [kcal/mol]    -297.44762351 [kJ/mol]
    Exchange sSAPT0                78.26860081 [mEh]      49.11428851 [kcal/mol]     205.49418313 [kJ/mol]
    Induction sSAPT0              -36.84087519 [mEh]     -23.11799820 [kcal/mol]     -96.72570448 [kJ/mol]
    Dispersion sSAPT0             -25.14517978 [mEh]     -15.77883853 [kcal/mol]     -66.01866042 [kJ/mol]
  Total sSAPT0                    -97.00927076 [mEh]     -60.87423644 [kcal/mol]    -254.69780528 [kJ/mol]
  --------------------------------------------------------------------------------------------------------

*** Psi4 exiting successfully. Buy a developer a beer!
