                               Psi4 1.8.2 release

  ==> Input File <==

--------------------------------------------------------------------------
MEMORY 60 GB

molecule dimer {
-1 1
Cl     0.000000     0.000000     0.000000
--
0 1
O      2.766194    -0.990872     1.334512
H      3.039003    -1.669598     0.704789
H      1.972907    -0.601045     0.984498
O      1.954164    -2.033443    -1.248793
H      2.754129    -1.997806    -1.786639
H      1.469395    -1.174972    -1.109340
O      0.724065     0.495149     3.233155
H      0.262707     0.210693     2.462424
H      1.506162    -0.008643     3.265816
O     -2.376968     0.795770    -2.094079
H     -2.494931     0.396759    -1.199738
H     -2.033227     1.702484    -1.954161
O     -1.121666    -3.050928     0.529231
H     -0.453203    -2.425550     0.260200
H     -1.712015    -3.186147    -0.206178

units ang
no_reorient
no_com
symmetry c1
}

set {
basis        aug-cc-pVTZ
scf_type     df
}

energy("sapt2+")
--------------------------------------------------------------------------

  //              Dimer HF             //
    Molecular point group: c1
  Charge       = -1
  Multiplicity = 1
  Basis Set: AUG-CC-PVTZ
    Blend: AUG-CC-PVTZ
  Basis Set: (AUG-CC-PVTZ AUX)
    Blend: AUG-CC-PVTZ-JKFIT
  @DF-RHF Final Energy:  -839.92379955281774
    Total Energy =                       -839.9237995528177407
 Dipole X            :        -37.6552850           37.5625378           -0.0927471
 Dipole Y            :         89.8629687          -88.8708282            0.9921404
 Dipole Z            :        -30.8707495           29.2035989           -1.6671507
 Magnitude           :                                                    1.9422502
  //            Monomer A HF           //
    Molecular point group: c1
  Multiplicity = 1
  Basis Set: AUG-CC-PVTZ
    Blend: AUG-CC-PVTZ
  Basis Set: (AUG-CC-PVTZ AUX)
    Blend: AUG-CC-PVTZ-JKFIT
  @DF-RHF Final Energy:  -459.57356891792926
    Total Energy =                       -459.5735689179292081
  //            Monomer B HF           //
    Molecular point group: c1

    Geometry (in Angstrom), charge = 0, multiplicity = 1:

       Center              X                  Y                   Z               Mass
    ------------   -----------------  -----------------  -----------------  -----------------
      Gh(CL)          0.000000000000     0.000000000000     0.000000000000    34.968852682000
         O            2.766194000000    -0.990872000000     1.334512000000    15.994914619570
         H            3.039003000000    -1.669598000000     0.704789000000     1.007825032230
         H            1.972907000000    -0.601045000000     0.984498000000     1.007825032230
         O            1.954164000000    -2.033443000000    -1.248793000000    15.994914619570
         H            2.754129000000    -1.997806000000    -1.786639000000     1.007825032230
         H            1.469395000000    -1.174972000000    -1.109340000000     1.007825032230
         O            0.724065000000     0.495149000000     3.233155000000    15.994914619570
         H            0.262707000000     0.210693000000     2.462424000000     1.007825032230
         H            1.506162000000    -0.008643000000     3.265816000000     1.007825032230
         O           -2.376968000000     0.795770000000    -2.094079000000    15.994914619570
         H           -2.494931000000     0.396759000000    -1.199738000000     1.007825032230
         H           -2.033227000000     1.702484000000    -1.954161000000     1.007825032230
         O           -1.121666000000    -3.050928000000     0.529231000000    15.994914619570
         H           -0.453203000000    -2.425550000000     0.260200000000     1.007825032230
         H           -1.712015000000    -3.186147000000    -0.206178000000     1.007825032230

  Charge       = 0
  Multiplicity = 1
  Basis Set: AUG-CC-PVTZ
    Blend: AUG-CC-PVTZ
  Basis Set: (AUG-CC-PVTZ AUX)
    Blend: AUG-CC-PVTZ-JKFIT

    Orbital Energies [Eh]
    ---------------------

    Doubly Occupied:

       1A    -20.602875     2A    -20.586759     3A    -20.575117
       4A    -20.571838     5A    -20.558338     6A     -1.377210
       7A     -1.363255     8A     -1.359933     9A     -1.357977
      10A     -1.355303    11A     -0.768047    12A     -0.734788
      13A     -0.733557    14A     -0.728326    15A     -0.723812
      16A     -0.603627    17A     -0.597844    18A     -0.591734
      19A     -0.584916    20A     -0.581933    21A     -0.537349
      22A     -0.523795    23A     -0.520008    24A     -0.516323
      25A     -0.507773

  @DF-RHF Final Energy:  -380.29088513189527

   => Energetics <=

    Nuclear Repulsion Energy =            168.0201734141928966
    One-Electron Energy =                -858.6972426287451299
    Two-Electron Energy =                 310.3861840826569960
    Total Energy =                       -380.2908851318952657
 Dipole X            :        -37.1788147           37.5625378            0.3837232
 Dipole Y            :         89.2709655          -88.8708282            0.4001372
 Dipole Z            :        -30.7470462           29.2035989           -1.5434473
 Magnitude           :                                                    1.6399948

    SAPT Results
  --------------------------------------------------------------------------------------------------------
    Electrostatics                -91.45175123 [mEh]     -57.38684029 [kcal/mol]    -240.10653976 [kJ/mol]
      Elst10,r                    -90.84554142 [mEh]     -57.00643789 [kcal/mol]    -238.51493614 [kJ/mol]
      Elst12,r                     -0.60620981 [mEh]      -0.38040240 [kcal/mol]      -1.59160362 [kJ/mol]

    Exchange                       69.79961044 [mEh]      43.79991682 [kcal/mol]     183.25885197 [kJ/mol]
      Exch10                       61.17678402 [mEh]      38.38901155 [kcal/mol]     160.61962433 [kJ/mol]
      Exch10(S^2)                  60.60827178 [mEh]      38.03226473 [kcal/mol]     159.12699564 [kJ/mol]
      Exch11(S^2)                   2.41021740 [mEh]       1.51243425 [kcal/mol]       6.32802492 [kJ/mol]
      Exch12(S^2)                   6.21260902 [mEh]       3.89847102 [kcal/mol]      16.31120273 [kJ/mol]

    Induction                     -32.82859877 [mEh]     -20.60025674 [kcal/mol]     -86.19147419 [kJ/mol]
      Ind20,r                     -51.17522566 [mEh]     -32.11293893 [kcal/mol]    -134.36053647 [kJ/mol]
      Ind22                        -7.27314418 [mEh]      -4.56396688 [kcal/mol]     -19.09563741 [kJ/mol]
      Exch-Ind20,r                 28.99818733 [mEh]      18.19663727 [kcal/mol]      76.13473035 [kJ/mol]
      Exch-Ind22                    4.12129101 [mEh]       2.58614915 [kcal/mol]      10.82044805 [kJ/mol]
      delta HF,r (2)               -7.49970727 [mEh]      -4.70613736 [kcal/mol]     -19.69047871 [kJ/mol]

    Dispersion                    -25.37379547 [mEh]     -15.92229705 [kcal/mol]     -66.61889084 [kJ/mol]
      Disp20                      -28.58846571 [mEh]     -17.93953307 [kcal/mol]     -75.05900637 [kJ/mol]
      Disp21                        1.92742925 [mEh]       1.20948011 [kcal/mol]       5.06046480 [kJ/mol]
      Disp22 (SDQ)                 -0.12976522 [mEh]      -0.08142891 [kcal/mol]      -0.34069854 [kJ/mol]
      Disp22 (T)                   -4.57166996 [mEh]      -2.86876621 [kcal/mol]     -12.00291784 [kJ/mol]
      Est. Disp22 (T)              -5.28342926 [mEh]      -3.31540192 [kcal/mol]     -13.87164162 [kJ/mol]
      Exch-Disp20                   6.70043547 [mEh]       4.20458673 [kcal/mol]      17.59199090 [kJ/mol]

  Total HF                        -59.34550299 [mEh]     -37.23986535 [kcal/mol]    -155.81159664 [kJ/mol]
  Total SAPT0                     -81.23353323 [mEh]     -50.97481169 [kcal/mol]    -213.27861211 [kJ/mol]
  Total SAPT2                     -76.36876979 [mEh]     -47.92212654 [kcal/mol]    -200.50617745 [kJ/mol]
  Total SAPT2+                    -79.85453502 [mEh]     -50.10947725 [kcal/mol]    -209.65805282 [kJ/mol]

  Special recipe for scaled SAPT0 (see Manual):
    Electrostatics sSAPT0         -90.84554142 [mEh]     -57.00643789 [kcal/mol]    -238.51493614 [kJ/mol]
    Exchange sSAPT0                61.17678402 [mEh]      38.38901155 [kcal/mol]     160.61962433 [kJ/mol]
    Induction sSAPT0              -28.85304878 [mEh]     -18.10556146 [kcal/mol]     -75.75366913 [kJ/mol]
    Dispersion sSAPT0             -21.69770360 [mEh]     -13.61551457 [kcal/mol]     -56.96731296 [kJ/mol]
  Total sSAPT0                    -80.21950978 [mEh]     -50.33850237 [kcal/mol]    -210.61629390 [kJ/mol]
  --------------------------------------------------------------------------------------------------------

*** Psi4 exiting successfully. Buy a developer a beer!
