                               Psi4 1.8.2 release

  ==> Input File <==

--------------------------------------------------------------------------
MEMORY 60 GB

molecule dimer {
-1 1
Cl     0.000000     0.000000     0.000000
--
0 1
O      2.577144     1.301097    -1.507566
H      1.636751     1.082512    -1.310522
H      2.493026     1.546902    -2.431710
O     -0.803884    -0.114309     3.230273
H     -1.032596    -0.160666     2.314983
H     -1.231357    -0.797408     3.797174
O      0.843661    -2.286358    -2.084704
H      0.687224    -1.478250    -1.561391
H      0.748808    -1.967004    -2.989697
O     -3.119480    -1.368652    -0.412857
H     -2.259889    -0.968028    -0.211314
H     -2.868990    -2.275884    -0.520071

units ang
no_reorient
no_com
symmetry c1
}

set {
basis        aug-cc-pVTZ
scf_type     df
}

energy("sapt2+")
--------------------------------------------------------------------------

  //              Dimer HF             //
    Molecular point group: c1
  Charge       = -1
  Multiplicity = 1
  Basis Set: AUG-CC-PVTZ
    Blend: AUG-CC-PVTZ
  Basis Set: (AUG-CC-PVTZ AUX)
    Blend: AUG-CC-PVTZ-JKFIT
  @DF-RHF Final Energy:  -763.85838520907225
    Total Energy =                       -763.8583852090722530
 Dipole X            :         10.6340866          -11.0501641           -0.4160775
 Dipole Y            :         47.0117220          -46.7964257            0.2152964
 Dipole Z            :         16.6525172          -17.2180128           -0.5654956
 Magnitude           :                                                    0.7343421
  //            Monomer A HF           //
    Molecular point group: c1
  Multiplicity = 1
  Basis Set: AUG-CC-PVTZ
    Blend: AUG-CC-PVTZ
  Basis Set: (AUG-CC-PVTZ AUX)
    Blend: AUG-CC-PVTZ-JKFIT
  @DF-RHF Final Energy:  -459.57355612690804
    Total Energy =                       -459.5735561269081018
  //            Monomer B HF           //
    Molecular point group: c1

    Geometry (in Angstrom), charge = 0, multiplicity = 1:

       Center              X                  Y                   Z               Mass
    ------------   -----------------  -----------------  -----------------  -----------------
      Gh(CL)          0.000000000000     0.000000000000     0.000000000000    34.968852682000
         O            2.577144000000     1.301097000000    -1.507566000000    15.994914619570
         H            1.636751000000     1.082512000000    -1.310522000000     1.007825032230
         H            2.493026000000     1.546902000000    -2.431710000000     1.007825032230
         O           -0.803884000000    -0.114309000000     3.230273000000    15.994914619570
         H           -1.032596000000    -0.160666000000     2.314983000000     1.007825032230
         H           -1.231357000000    -0.797408000000     3.797174000000     1.007825032230
         O            0.843661000000    -2.286358000000    -2.084704000000    15.994914619570
         H            0.687224000000    -1.478250000000    -1.561391000000     1.007825032230
         H            0.748808000000    -1.967004000000    -2.989697000000     1.007825032230
         O           -3.119480000000    -1.368652000000    -0.412857000000    15.994914619570
         H           -2.259889000000    -0.968028000000    -0.211314000000     1.007825032230
         H           -2.868990000000    -2.275884000000    -0.520071000000     1.007825032230

  Charge       = 0
  Multiplicity = 1
  Basis Set: AUG-CC-PVTZ
    Blend: AUG-CC-PVTZ
  Basis Set: (AUG-CC-PVTZ AUX)
    Blend: AUG-CC-PVTZ-JKFIT

    Orbital Energies [Eh]
    ---------------------

    Doubly Occupied:

       1A    -20.585735     2A    -20.585256     3A    -20.582941
       4A    -20.570305     5A     -1.369712     6A     -1.364026
       7A     -1.362421     8A     -1.349833     9A     -0.738887
      10A     -0.723527    11A     -0.722211    12A     -0.712722
      13A     -0.605770    14A     -0.604725    15A     -0.600849
      16A     -0.570185    17A     -0.526814    18A     -0.524802
      19A     -0.521711    20A     -0.513107

  @DF-RHF Final Energy:  -304.22995067091568

   => Energetics <=

    Nuclear Repulsion Energy =            100.7988683462452002
    One-Electron Energy =                -619.7865473770515337
    Two-Electron Energy =                 214.7577283598906774
    Total Energy =                       -304.2299506709156844
 Dipole X            :         10.5398422          -11.0501641           -0.5103219
 Dipole Y            :         46.6926010          -46.7964257           -0.1038246
 Dipole Z            :         16.3021841          -17.2180128           -0.9158287
 Magnitude           :                                                    1.0535417

    SAPT Results
  --------------------------------------------------------------------------------------------------------
    Electrostatics                -74.35156062 [mEh]     -46.65630868 [kcal/mol]    -195.20999552 [kJ/mol]
      Elst10,r                    -73.96737017 [mEh]     -46.41522553 [kcal/mol]    -194.20130361 [kJ/mol]
      Elst12,r                     -0.38419046 [mEh]      -0.24108315 [kcal/mol]      -1.00869191 [kJ/mol]

    Exchange                       50.05443214 [mEh]      31.40963037 [kcal/mol]     131.41789349 [kJ/mol]
      Exch10                       44.10924499 [mEh]      27.67896911 [kcal/mol]     115.80880676 [kJ/mol]
      Exch10(S^2)                  43.73693892 [mEh]      27.44534352 [kcal/mol]     114.83131731 [kJ/mol]
      Exch11(S^2)                   1.91112397 [mEh]       1.19924840 [kcal/mol]       5.01765529 [kJ/mol]
      Exch12(S^2)                   4.03406319 [mEh]       2.53141287 [kcal/mol]      10.59143143 [kJ/mol]

    Induction                     -27.25611681 [mEh]     -17.10347152 [kcal/mol]     -71.56092482 [kJ/mol]
      Ind20,r                     -38.72168462 [mEh]     -24.29822394 [kcal/mol]    -101.66376897 [kJ/mol]
      Ind22                        -4.53950758 [mEh]      -2.84858401 [kcal/mol]     -11.91847550 [kJ/mol]
      Exch-Ind20,r                 19.65020356 [mEh]      12.33068890 [kcal/mol]      51.59160234 [kJ/mol]
      Exch-Ind22                    2.30367684 [mEh]       1.44557904 [kcal/mol]       6.04830270 [kJ/mol]
      delta HF,r (2)               -5.94880501 [mEh]      -3.73293150 [kcal/mol]     -15.61858540 [kJ/mol]

    Dispersion                    -19.12586154 [mEh]     -12.00165931 [kcal/mol]     -50.21494255 [kJ/mol]
      Disp20                      -21.16392601 [mEh]     -13.28056408 [kcal/mol]     -55.56588009 [kJ/mol]
      Disp21                        1.20979669 [mEh]       0.75915889 [kcal/mol]       3.17632078 [kJ/mol]
      Disp22 (SDQ)                  0.04423507 [mEh]       0.02775792 [kcal/mol]       0.11613915 [kJ/mol]
      Disp22 (T)                   -3.36219772 [mEh]      -2.10981092 [kcal/mol]      -8.82744890 [kJ/mol]
      Est. Disp22 (T)              -3.88784942 [mEh]      -2.43966234 [kcal/mol]     -10.20754725 [kJ/mol]
      Exch-Disp20                   4.67188213 [mEh]       2.93165030 [kcal/mol]      12.26602486 [kJ/mol]

  Total HF                        -54.87841125 [mEh]     -34.43672296 [kcal/mol]    -144.08324888 [kJ/mol]
  Total SAPT0                     -71.37045513 [mEh]     -44.78563674 [kcal/mol]    -187.38310412 [kJ/mol]
  Total SAPT2                     -68.04528917 [mEh]     -42.69906360 [kcal/mol]    -178.65288209 [kJ/mol]
  Total SAPT2+                    -70.67910683 [mEh]     -44.35180913 [kcal/mol]    -185.56796941 [kJ/mol]

  Special recipe for scaled SAPT0 (see Manual):
    Electrostatics sSAPT0         -73.96737017 [mEh]     -46.41522553 [kcal/mol]    -194.20130361 [kJ/mol]
    Exchange sSAPT0                44.10924499 [mEh]      27.67896911 [kcal/mol]     115.80880676 [kJ/mol]
    Induction sSAPT0              -24.51419150 [mEh]     -15.38288741 [kcal/mol]     -64.36200090 [kJ/mol]
    Dispersion sSAPT0             -16.37171870 [mEh]     -10.27340859 [kcal/mol]     -42.98394153 [kJ/mol]
  Total sSAPT0                    -70.74403538 [mEh]     -44.39255241 [kcal/mol]    -185.73843929 [kJ/mol]
  --------------------------------------------------------------------------------------------------------

*** Psi4 exiting successfully. Buy a developer a beer!
