                               Psi4 1.8.2 release

  ==> Input File <==

--------------------------------------------------------------------------
MEMORY 60 GB

molecule dimer {
-1 1
Cl     0.000000     0.000000     0.000000
--
0 1
O     -2.814531    -1.586422    -0.841082
H     -2.108229    -0.943243    -0.828051
H     -3.303767    -1.610933     0.003772
O      2.643403    -0.729932     2.153137
H      2.361492     0.103266     2.473781
H      3.569043    -0.852540     2.415988
O      0.360111    -1.589716    -3.056327
H      0.594650    -0.827780    -3.630698
H      0.428642    -1.160485    -2.205151
O     -1.121098     1.837686    -2.537137
H     -0.260127     2.147674    -2.890256
H     -0.883283     1.263543    -1.784354
O      2.631503     1.421712    -1.348374
H      1.781393     1.299793    -0.855764
H      3.087746     0.624659    -1.064809
O     -0.810626     0.796305     2.988929
H     -1.124595     0.478072     2.104225
H     -1.310898     0.268521     3.682673

units ang
no_reorient
no_com
symmetry c1
}

set {
basis        aug-cc-pVTZ
scf_type     df
}

energy("sapt2+")
--------------------------------------------------------------------------

  //              Dimer HF             //
    Molecular point group: c1
  Charge       = -1
  Multiplicity = 1
  Basis Set: AUG-CC-PVTZ
    Blend: AUG-CC-PVTZ
  Basis Set: (AUG-CC-PVTZ AUX)
    Blend: AUG-CC-PVTZ-JKFIT
  @DF-RHF Final Energy:  -915.98021691330962
    Total Energy =                       -915.9802169133096186
 Dipole X            :        -17.9810155           18.7879652            0.8069497
 Dipole Y            :         -3.6288976            3.7560404            0.1271428
 Dipole Z            :         47.0472596          -44.7968573            2.2504023
 Magnitude           :                                                    2.3940851
  //            Monomer A HF           //
    Molecular point group: c1
  Multiplicity = 1
  Basis Set: AUG-CC-PVTZ
    Blend: AUG-CC-PVTZ
  Basis Set: (AUG-CC-PVTZ AUX)
    Blend: AUG-CC-PVTZ-JKFIT
  @DF-RHF Final Energy:  -459.57357834867582
    Total Energy =                       -459.5735783486758237
  //            Monomer B HF           //
    Molecular point group: c1

    Geometry (in Angstrom), charge = 0, multiplicity = 1:

       Center              X                  Y                   Z               Mass
    ------------   -----------------  -----------------  -----------------  -----------------
      Gh(CL)          0.000000000000     0.000000000000     0.000000000000    34.968852682000
         O           -2.814531000000    -1.586422000000    -0.841082000000    15.994914619570
         H           -2.108229000000    -0.943243000000    -0.828051000000     1.007825032230
         H           -3.303767000000    -1.610933000000     0.003772000000     1.007825032230
         O            2.643403000000    -0.729932000000     2.153137000000    15.994914619570
         H            2.361492000000     0.103266000000     2.473781000000     1.007825032230
         H            3.569043000000    -0.852540000000     2.415988000000     1.007825032230
         O            0.360111000000    -1.589716000000    -3.056327000000    15.994914619570
         H            0.594650000000    -0.827780000000    -3.630698000000     1.007825032230
         H            0.428642000000    -1.160485000000    -2.205151000000     1.007825032230
         O           -1.121098000000     1.837686000000    -2.537137000000    15.994914619570
         H           -0.260127000000     2.147674000000    -2.890256000000     1.007825032230
         H           -0.883283000000     1.263543000000    -1.784354000000     1.007825032230
         O            2.631503000000     1.421712000000    -1.348374000000    15.994914619570
         H            1.781393000000     1.299793000000    -0.855764000000     1.007825032230
         H            3.087746000000     0.624659000000    -1.064809000000     1.007825032230
         O           -0.810626000000     0.796305000000     2.988929000000    15.994914619570
         H           -1.124595000000     0.478072000000     2.104225000000     1.007825032230
         H           -1.310898000000     0.268521000000     3.682673000000     1.007825032230

  Charge       = 0
  Multiplicity = 1
  Basis Set: AUG-CC-PVTZ
    Blend: AUG-CC-PVTZ
  Basis Set: (AUG-CC-PVTZ AUX)
    Blend: AUG-CC-PVTZ-JKFIT

    Orbital Energies [Eh]
    ---------------------

    Doubly Occupied:

       1A    -20.593156     2A    -20.591731     3A    -20.587579
       4A    -20.577675     5A    -20.574201     6A    -20.573835
       7A     -1.367518     8A     -1.366457     9A     -1.359602
      10A     -1.353908    11A     -1.352651    12A     -1.352205
      13A     -0.739228    14A     -0.735962    15A     -0.722678
      16A     -0.720503    17A     -0.716989    18A     -0.702550
      19A     -0.611205    20A     -0.598850    21A     -0.593635
      22A     -0.592926    23A     -0.592727    24A     -0.575806
      25A     -0.530185    26A     -0.527073    27A     -0.525496
      28A     -0.522609    29A     -0.515452    30A     -0.511658

  @DF-RHF Final Energy:  -456.34339591612542

   => Energetics <=

    Nuclear Repulsion Energy =            221.6697577790241667
    One-Electron Energy =               -1070.6541996591010957
    Two-Electron Energy =                 392.6410459639515125
    Total Energy =                       -456.3433959161254165
 Dipole X            :        -18.0845383           18.7879652            0.7034269
 Dipole Y            :         -3.4242403            3.7560404            0.3318001
 Dipole Z            :         46.5711256          -44.7968573            1.7742682
 Magnitude           :                                                    1.9372477

    SAPT Results
  --------------------------------------------------------------------------------------------------------
    Electrostatics                -88.58512216 [mEh]     -55.58800339 [kcal/mol]    -232.58020620 [kJ/mol]
      Elst10,r                    -87.91142494 [mEh]     -55.16525201 [kcal/mol]    -230.81141439 [kJ/mol]
      Elst12,r                     -0.67369722 [mEh]      -0.42275139 [kcal/mol]      -1.76879180 [kJ/mol]

    Exchange                       64.13613369 [mEh]      40.24603150 [kcal/mol]     168.38939580 [kJ/mol]
      Exch10                       55.71235144 [mEh]      34.96002834 [kcal/mol]     146.27275856 [kJ/mol]
      Exch10(S^2)                  55.38268882 [mEh]      34.75316192 [kcal/mol]     145.40722945 [kJ/mol]
      Exch11(S^2)                   2.53747740 [mEh]       1.59229111 [kcal/mol]       6.66214600 [kJ/mol]
      Exch12(S^2)                   5.88630484 [mEh]       3.69371205 [kcal/mol]      15.45449124 [kJ/mol]

    Induction                     -34.33973828 [mEh]     -21.54851110 [kcal/mol]     -90.15897044 [kJ/mol]
      Ind20,r                     -49.52622350 [mEh]     -31.07817444 [kcal/mol]    -130.03108187 [kJ/mol]
      Ind22                        -6.62036163 [mEh]      -4.15433964 [kcal/mol]     -17.38175706 [kJ/mol]
      Exch-Ind20,r                 24.86797546 [mEh]      15.60489019 [kcal/mol]      65.29086057 [kJ/mol]
      Exch-Ind22                    3.32419835 [mEh]       2.08596596 [kcal/mol]       8.72768157 [kJ/mol]
      delta HF,r (2)               -6.38532697 [mEh]      -4.00685316 [kcal/mol]     -16.76467364 [kJ/mol]

    Dispersion                    -26.20628482 [mEh]     -16.44469200 [kcal/mol]     -68.80459132 [kJ/mol]
      Disp20                      -28.75359191 [mEh]     -18.04315133 [kcal/mol]     -75.49254516 [kJ/mol]
      Disp21                        1.82983523 [mEh]       1.14823894 [kcal/mol]       4.80423173 [kJ/mol]
      Disp22 (SDQ)                 -0.13958320 [mEh]      -0.08758978 [kcal/mol]      -0.36647565 [kJ/mol]
      Disp22 (T)                   -4.69841919 [mEh]      -2.94830255 [kcal/mol]     -12.33569788 [kJ/mol]
      Est. Disp22 (T)              -5.42750191 [mEh]      -3.40580887 [kcal/mol]     -14.24990431 [kJ/mol]
      Exch-Disp20                   6.28455698 [mEh]       3.94361904 [kcal/mol]      16.50010208 [kJ/mol]

  Total HF                        -63.24264851 [mEh]     -39.68536109 [kcal/mol]    -166.04355078 [kJ/mol]
  Total SAPT0                     -85.71168344 [mEh]     -53.78489337 [kcal/mol]    -225.03599387 [kJ/mol]
  Total SAPT2                     -81.25776169 [mEh]     -50.99001528 [kcal/mol]    -213.34222392 [kJ/mol]
  Total SAPT2+                    -84.99501158 [mEh]     -53.33517499 [kcal/mol]    -223.15437216 [kJ/mol]

  Special recipe for scaled SAPT0 (see Manual):
    Electrostatics sSAPT0         -87.91142494 [mEh]     -55.16525201 [kcal/mol]    -230.81141439 [kJ/mol]
    Exchange sSAPT0                55.71235144 [mEh]      34.96002834 [kcal/mol]     146.27275856 [kJ/mol]
    Induction sSAPT0              -30.59685036 [mEh]     -19.19981347 [kcal/mol]     -80.33201955 [kJ/mol]
    Dispersion sSAPT0             -22.35614008 [mEh]     -14.02868969 [kcal/mol]     -58.69603768 [kJ/mol]
  Total sSAPT0                    -85.15206394 [mEh]     -53.43372683 [kcal/mol]    -223.56671307 [kJ/mol]
  --------------------------------------------------------------------------------------------------------

*** Psi4 exiting successfully. Buy a developer a beer!
