                               Psi4 1.8.2 release

  ==> Input File <==

--------------------------------------------------------------------------
MEMORY 60 GB

molecule dimer {
-1 1
Cl     0.000000     0.000000     0.000000
--
0 1
O      2.306524     0.633217    -2.188513
H      1.570454     0.370574    -1.615926
H      2.887146    -0.151513    -2.257538
O      0.078149     0.201119     3.270859
H      0.255800     0.302782     2.290721
H     -0.317832     0.962546     3.712858
O      0.602014    -3.026089     0.733427
H     -0.271511    -3.137610     1.226318
H      0.722809    -2.074794     0.669439
O      2.057172     1.804508     1.691988
H      1.703814     1.155732     1.058885
H      2.867329     1.350957     1.953438

units ang
no_reorient
no_com
symmetry c1
}

set {
basis        aug-cc-pVTZ
scf_type     df
}

energy("sapt2+")
--------------------------------------------------------------------------

  //              Dimer HF             //
    Molecular point group: c1
  Charge       = -1
  Multiplicity = 1
  Basis Set: AUG-CC-PVTZ
    Blend: AUG-CC-PVTZ
  Basis Set: (AUG-CC-PVTZ AUX)
    Blend: AUG-CC-PVTZ-JKFIT
  @DF-RHF Final Energy:  -763.85192574230007
    Total Energy =                       -763.8519257423000681
 Dipole X            :        -95.1192464           94.0495547           -1.0696917
 Dipole Y            :          8.0402660           -8.1622676           -0.1220016
 Dipole Z            :        -66.7198963           66.3299218           -0.3899745
 Magnitude           :                                                    1.1450786
  //            Monomer A HF           //
    Molecular point group: c1
  Multiplicity = 1
  Basis Set: AUG-CC-PVTZ
    Blend: AUG-CC-PVTZ
  Basis Set: (AUG-CC-PVTZ AUX)
    Blend: AUG-CC-PVTZ-JKFIT
  @DF-RHF Final Energy:  -459.57356472550060
    Total Energy =                       -459.5735647255006029
  //            Monomer B HF           //
    Molecular point group: c1

    Geometry (in Angstrom), charge = 0, multiplicity = 1:

       Center              X                  Y                   Z               Mass
    ------------   -----------------  -----------------  -----------------  -----------------
      Gh(CL)          0.000000000000     0.000000000000     0.000000000000    34.968852682000
         O            2.306524000000     0.633217000000    -2.188513000000    15.994914619570
         H            1.570454000000     0.370574000000    -1.615926000000     1.007825032230
         H            2.887146000000    -0.151513000000    -2.257538000000     1.007825032230
         O            0.078149000000     0.201119000000     3.270859000000    15.994914619570
         H            0.255800000000     0.302782000000     2.290721000000     1.007825032230
         H           -0.317832000000     0.962546000000     3.712858000000     1.007825032230
         O            0.602014000000    -3.026089000000     0.733427000000    15.994914619570
         H           -0.271511000000    -3.137610000000     1.226318000000     1.007825032230
         H            0.722809000000    -2.074794000000     0.669439000000     1.007825032230
         O            2.057172000000     1.804508000000     1.691988000000    15.994914619570
         H            1.703814000000     1.155732000000     1.058885000000     1.007825032230
         H            2.867329000000     1.350957000000     1.953438000000     1.007825032230

  Charge       = 0
  Multiplicity = 1
  Basis Set: AUG-CC-PVTZ
    Blend: AUG-CC-PVTZ
  Basis Set: (AUG-CC-PVTZ AUX)
    Blend: AUG-CC-PVTZ-JKFIT

    Orbital Energies [Eh]
    ---------------------

    Doubly Occupied:

       1A    -20.585675     2A    -20.583896     3A    -20.583695
       4A    -20.568035     5A     -1.367524     6A     -1.358582
       7A     -1.351991     8A     -1.336195     9A     -0.732733
      10A     -0.726067    11A     -0.715269    12A     -0.714759
      13A     -0.607385    14A     -0.592484    15A     -0.590929
      16A     -0.564431    17A     -0.530922    18A     -0.522367
      19A     -0.519758    20A     -0.500583

  @DF-RHF Final Energy:  -304.21971152586013

   => Energetics <=

    Nuclear Repulsion Energy =            110.8781704908727335
    One-Electron Energy =                -640.0891980756493922
    Two-Electron Energy =                 224.9913160589164818
    Total Energy =                       -304.2197115258601343
 Dipole X            :        -94.4079984           94.0495547           -0.3584437
 Dipole Y            :          7.9601181           -8.1622676           -0.2021495
 Dipole Z            :        -66.2714407           66.3299218            0.0584811
 Magnitude           :                                                    0.4156517

    SAPT Results
  --------------------------------------------------------------------------------------------------------
    Electrostatics                -86.04772318 [mEh]     -53.99576149 [kcal/mol]    -225.91826608 [kJ/mol]
      Elst10,r                    -85.70008360 [mEh]     -53.77761436 [kcal/mol]    -225.00553848 [kJ/mol]
      Elst12,r                     -0.34763958 [mEh]      -0.21814713 [kcal/mol]      -0.91272760 [kJ/mol]

    Exchange                       65.07685915 [mEh]      40.83634564 [kcal/mol]     170.85927016 [kJ/mol]
      Exch10                       57.27149077 [mEh]      35.93840303 [kcal/mol]     150.36627829 [kJ/mol]
      Exch10(S^2)                  56.87022126 [mEh]      35.68660261 [kcal/mol]     149.31274534 [kJ/mol]
      Exch11(S^2)                   2.47401164 [mEh]       1.55246574 [kcal/mol]       6.49551667 [kJ/mol]
      Exch12(S^2)                   5.33135674 [mEh]       3.34547686 [kcal/mol]      13.99747520 [kJ/mol]

    Induction                     -33.06946333 [mEh]     -20.75140153 [kcal/mol]     -86.82386402 [kJ/mol]
      Ind20,r                     -47.99062310 [mEh]     -30.11457065 [kcal/mol]    -125.99936360 [kJ/mol]
      Ind22                        -6.24166563 [mEh]      -3.91670431 [kcal/mol]     -16.38749084 [kJ/mol]
      Exch-Ind20,r                 26.08870970 [mEh]      16.37091249 [kcal/mol]      68.49589788 [kJ/mol]
      Exch-Ind22                    3.39310040 [mEh]       2.12920265 [kcal/mol]       8.90858388 [kJ/mol]
      delta HF,r (2)               -8.31898470 [mEh]      -5.22024171 [kcal/mol]     -21.84149133 [kJ/mol]

    Dispersion                    -22.59323647 [mEh]     -14.17746993 [kcal/mol]     -59.31853418 [kJ/mol]
      Disp20                      -25.55852698 [mEh]     -16.03821781 [kcal/mol]     -67.10390334 [kJ/mol]
      Disp21                        1.68475985 [mEh]       1.05720277 [kcal/mol]       4.42333637 [kJ/mol]
      Disp22 (SDQ)                 -0.01008465 [mEh]      -0.00632821 [kcal/mol]      -0.02647725 [kJ/mol]
      Disp22 (T)                   -4.08956889 [mEh]      -2.56624322 [kcal/mol]     -10.73716164 [kJ/mol]
      Est. Disp22 (T)              -4.70427174 [mEh]      -2.95197508 [kcal/mol]     -12.35106375 [kJ/mol]
      Exch-Disp20                   5.99488705 [mEh]       3.76184842 [kcal/mol]      15.73957378 [kJ/mol]

  Total HF                        -58.64949094 [mEh]     -36.80311120 [kcal/mol]    -153.98421725 [kJ/mol]
  Total SAPT0                     -78.21313087 [mEh]     -49.07948059 [kcal/mol]    -205.34854680 [kJ/mol]
  Total SAPT2                     -73.60396729 [mEh]     -46.18718678 [kcal/mol]    -193.24718950 [kJ/mol]
  Total SAPT2+                    -76.63356383 [mEh]     -48.08828731 [kcal/mol]    -201.20139413 [kJ/mol]

  Special recipe for scaled SAPT0 (see Manual):
    Electrostatics sSAPT0         -85.70008360 [mEh]     -53.77761436 [kcal/mol]    -225.00553848 [kJ/mol]
    Exchange sSAPT0                57.27149077 [mEh]      35.93840303 [kcal/mol]     150.36627829 [kJ/mol]
    Induction sSAPT0              -29.66475594 [mEh]     -18.61491539 [kcal/mol]     -77.88480600 [kJ/mol]
    Dispersion sSAPT0             -19.43584482 [mEh]     -12.19617676 [kcal/mol]     -51.02880355 [kJ/mol]
  Total sSAPT0                    -77.52919360 [mEh]     -48.65030348 [kcal/mol]    -203.55286974 [kJ/mol]
  --------------------------------------------------------------------------------------------------------

*** Psi4 exiting successfully. Buy a developer a beer!
