                               Psi4 1.8.2 release

  ==> Input File <==

--------------------------------------------------------------------------
MEMORY 60 GB

molecule dimer {
-1 1
Cl     0.000000     0.000000     0.000000
--
0 1
O     -3.038300     0.134622    -1.043661
H     -3.193085    -0.817042    -1.081050
H     -2.168895     0.204810    -0.622911
O      0.823564     1.469194    -2.905263
H      0.448094     2.356201    -2.904934
H      0.575772     1.029626    -2.123683
O      0.828626     1.168457     2.974264
H      0.970257     2.138629     3.098186
H      0.641650     1.018427     2.076444
O     -0.318478    -2.578120     1.970563
H     -0.430935    -1.762301     1.500686
H      0.695700    -2.767996     1.959541
O     -0.851147     3.093003    -0.308058
H     -0.095872     3.522305     0.160168
H     -0.635313     2.177807    -0.311008

units ang
no_reorient
no_com
symmetry c1
}

set {
basis        aug-cc-pVTZ
scf_type     df
}

energy("sapt2+")
--------------------------------------------------------------------------

  //              Dimer HF             //
    Molecular point group: c1
  Charge       = -1
  Multiplicity = 1
  Basis Set: AUG-CC-PVTZ
    Blend: AUG-CC-PVTZ
  Basis Set: (AUG-CC-PVTZ AUX)
    Blend: AUG-CC-PVTZ-JKFIT
  @DF-RHF Final Energy:  -839.93074095679560
    Total Energy =                       -839.9307409567956029
 Dipole X            :         46.1273104          -44.6703042            1.4570061
 Dipole Y            :        -63.1342348           63.1125327           -0.0217022
 Dipole Z            :        -13.5179207           13.7084494            0.1905286
 Magnitude           :                                                    1.4695710
  //            Monomer A HF           //
    Molecular point group: c1
  Multiplicity = 1
  Basis Set: AUG-CC-PVTZ
    Blend: AUG-CC-PVTZ
  Basis Set: (AUG-CC-PVTZ AUX)
    Blend: AUG-CC-PVTZ-JKFIT
  @DF-RHF Final Energy:  -459.57358055105198
    Total Energy =                       -459.5735805510519754
  //            Monomer B HF           //
    Molecular point group: c1

    Geometry (in Angstrom), charge = 0, multiplicity = 1:

       Center              X                  Y                   Z               Mass
    ------------   -----------------  -----------------  -----------------  -----------------
      Gh(CL)          0.000000000000     0.000000000000     0.000000000000    34.968852682000
         O           -3.038300000000     0.134622000000    -1.043661000000    15.994914619570
         H           -3.193085000000    -0.817042000000    -1.081050000000     1.007825032230
         H           -2.168895000000     0.204810000000    -0.622911000000     1.007825032230
         O            0.823564000000     1.469194000000    -2.905263000000    15.994914619570
         H            0.448094000000     2.356201000000    -2.904934000000     1.007825032230
         H            0.575772000000     1.029626000000    -2.123683000000     1.007825032230
         O            0.828626000000     1.168457000000     2.974264000000    15.994914619570
         H            0.970257000000     2.138629000000     3.098186000000     1.007825032230
         H            0.641650000000     1.018427000000     2.076444000000     1.007825032230
         O           -0.318478000000    -2.578120000000     1.970563000000    15.994914619570
         H           -0.430935000000    -1.762301000000     1.500686000000     1.007825032230
         H            0.695700000000    -2.767996000000     1.959541000000     1.007825032230
         O           -0.851147000000     3.093003000000    -0.308058000000    15.994914619570
         H           -0.095872000000     3.522305000000     0.160168000000     1.007825032230
         H           -0.635313000000     2.177807000000    -0.311008000000     1.007825032230

  Charge       = 0
  Multiplicity = 1
  Basis Set: AUG-CC-PVTZ
    Blend: AUG-CC-PVTZ
  Basis Set: (AUG-CC-PVTZ AUX)
    Blend: AUG-CC-PVTZ-JKFIT

    Orbital Energies [Eh]
    ---------------------

    Doubly Occupied:

       1A    -20.599747     2A    -20.589038     3A    -20.583241
       4A    -20.582866     5A    -20.573466     6A     -1.382692
       7A     -1.374564     8A     -1.366463     9A     -1.362731
      10A     -1.349363    11A     -0.748138    12A     -0.746785
      13A     -0.742966    14A     -0.723488    15A     -0.714231
      16A     -0.614097    17A     -0.599593    18A     -0.597293
      19A     -0.588891    20A     -0.586507    21A     -0.540047
      22A     -0.531843    23A     -0.522888    24A     -0.519707
      25A     -0.518306

  @DF-RHF Final Energy:  -380.28137401082239

   => Energetics <=

    Nuclear Repulsion Energy =            161.0140188963362675
    One-Electron Energy =                -844.4728844669810996
    Two-Electron Energy =                 303.1774915598223856
    Total Energy =                       -380.2813740108223897
 Dipole X            :         45.8139968          -44.6703042            1.1436925
 Dipole Y            :        -62.6903148           63.1125327            0.4222178
 Dipole Z            :        -13.4313802           13.7084494            0.2770691
 Magnitude           :                                                    1.2502271

    SAPT Results
  --------------------------------------------------------------------------------------------------------
    Electrostatics               -106.51379156 [mEh]     -66.83841329 [kcal/mol]    -279.65192123 [kJ/mol]
      Elst10,r                   -106.93849581 [mEh]     -67.10491923 [kcal/mol]    -280.76698206 [kJ/mol]
      Elst12,r                      0.42470424 [mEh]       0.26650594 [kcal/mol]       1.11506083 [kJ/mol]

    Exchange                       70.70646402 [mEh]      44.36897603 [kcal/mol]     185.63979572 [kJ/mol]
      Exch10                       61.73134514 [mEh]      38.73700390 [kcal/mol]     162.07562433 [kJ/mol]
      Exch10(S^2)                  61.30449196 [mEh]      38.46914949 [kcal/mol]     160.95492146 [kJ/mol]
      Exch11(S^2)                   2.92399840 [mEh]       1.83483669 [kcal/mol]       7.67695673 [kJ/mol]
      Exch12(S^2)                   6.05112049 [mEh]       3.79713543 [kcal/mol]      15.88721465 [kJ/mol]

    Induction                     -33.83883472 [mEh]     -21.23418937 [kcal/mol]     -88.84384832 [kJ/mol]
      Ind20,r                     -50.54832220 [mEh]     -31.71955106 [kcal/mol]    -132.71460165 [kJ/mol]
      Ind22                        -6.98276596 [mEh]      -4.38175179 [kcal/mol]     -18.33324950 [kJ/mol]
      Exch-Ind20,r                 26.95210973 [mEh]      16.91270420 [kcal/mol]      70.76275435 [kJ/mol]
      Exch-Ind22                    3.72317549 [mEh]       2.33632789 [kcal/mol]       9.77519591 [kJ/mol]
      delta HF,r (2)               -6.98303179 [mEh]      -4.38191860 [kcal/mol]     -18.33394743 [kJ/mol]

    Dispersion                    -26.19414751 [mEh]     -16.43707572 [kcal/mol]     -68.77272482 [kJ/mol]
      Disp20                      -29.10971022 [mEh]     -18.26661894 [kcal/mol]     -76.42753365 [kJ/mol]
      Disp21                        1.74989519 [mEh]       1.09807581 [kcal/mol]       4.59434918 [kJ/mol]
      Disp22 (SDQ)                 -0.09157870 [mEh]      -0.05746650 [kcal/mol]      -0.24043984 [kJ/mol]
      Disp22 (T)                   -4.68291074 [mEh]      -2.93857085 [kcal/mol]     -12.29498045 [kJ/mol]
      Est. Disp22 (T)              -5.39667423 [mEh]      -3.38646421 [kcal/mol]     -14.16896624 [kJ/mol]
      Exch-Disp20                   6.65392045 [mEh]       4.17539812 [kcal/mol]      17.46986573 [kJ/mol]

  Total HF                        -75.78639492 [mEh]     -47.55668080 [kcal/mol]    -198.97715245 [kJ/mol]
  Total SAPT0                     -98.24218469 [mEh]     -61.64790162 [kcal/mol]    -257.93482037 [kJ/mol]
  Total SAPT2                     -92.10195203 [mEh]     -57.79484745 [kcal/mol]    -241.81364175 [kJ/mol]
  Total SAPT2+                    -95.84030978 [mEh]     -60.14070235 [kcal/mol]    -251.62869865 [kJ/mol]

  Special recipe for scaled SAPT0 (see Manual):
    Electrostatics sSAPT0        -106.93849581 [mEh]     -67.10491923 [kcal/mol]    -280.76698206 [kJ/mol]
    Exchange sSAPT0                61.73134514 [mEh]      38.73700390 [kcal/mol]     162.07562433 [kJ/mol]
    Induction sSAPT0              -30.01232571 [mEh]     -18.83301872 [kcal/mol]     -78.79735031 [kJ/mol]
    Dispersion sSAPT0             -22.31582927 [mEh]     -14.00339428 [kcal/mol]     -58.59020166 [kJ/mol]
  Total sSAPT0                    -97.53530565 [mEh]     -61.20432832 [kcal/mol]    -256.07890969 [kJ/mol]
  --------------------------------------------------------------------------------------------------------

*** Psi4 exiting successfully. Buy a developer a beer!
