                               Psi4 1.8.2 release

  ==> Input File <==

--------------------------------------------------------------------------
MEMORY 60 GB

molecule dimer {
-1 1
Cl     0.000000     0.000000     0.000000
--
0 1
O      1.843131    -2.928078     0.028869
H      1.734144    -3.339101    -0.815892
H      1.476043    -2.034862    -0.124140
O     -0.739325     0.185713     3.270818
H     -0.593132     0.273354     2.341271
H     -1.651095     0.407133     3.553063
O      3.026441     0.116813     0.654019
H      3.740367    -0.459401     0.917951
H      2.256261    -0.016604     1.231702
O     -3.062313     1.140314    -0.135008
H     -3.441508     1.597141     0.629278
H     -2.174978     0.899555     0.162993
O      0.894047     2.914112    -0.227527
H      1.684458     3.103862     0.278795
H      0.585305     2.078635     0.100756

units ang
no_reorient
no_com
symmetry c1
}

set {
basis        aug-cc-pVTZ
scf_type     df
}

energy("sapt2+")
--------------------------------------------------------------------------

  //              Dimer HF             //
    Molecular point group: c1
  Charge       = -1
  Multiplicity = 1
  Basis Set: AUG-CC-PVTZ
    Blend: AUG-CC-PVTZ
  Basis Set: (AUG-CC-PVTZ AUX)
    Blend: AUG-CC-PVTZ-JKFIT
  @DF-RHF Final Energy:  -839.92059972359675
    Total Energy =                       -839.9205997235967516
 Dipole X            :        -36.6881982           36.4938486           -0.1943496
 Dipole Y            :        -26.8870458           26.3441126           -0.5429333
 Dipole Z            :        -69.7446445           69.9295893            0.1849447
 Magnitude           :                                                    0.6056012
  //            Monomer A HF           //
    Molecular point group: c1
  Multiplicity = 1
  Basis Set: AUG-CC-PVTZ
    Blend: AUG-CC-PVTZ
  Basis Set: (AUG-CC-PVTZ AUX)
    Blend: AUG-CC-PVTZ-JKFIT
  @DF-RHF Final Energy:  -459.57357539777655
    Total Energy =                       -459.5735753977764944
  //            Monomer B HF           //
    Molecular point group: c1

    Geometry (in Angstrom), charge = 0, multiplicity = 1:

       Center              X                  Y                   Z               Mass
    ------------   -----------------  -----------------  -----------------  -----------------
      Gh(CL)          0.000000000000     0.000000000000     0.000000000000    34.968852682000
         O            1.843131000000    -2.928078000000     0.028869000000    15.994914619570
         H            1.734144000000    -3.339101000000    -0.815892000000     1.007825032230
         H            1.476043000000    -2.034862000000    -0.124140000000     1.007825032230
         O           -0.739325000000     0.185713000000     3.270818000000    15.994914619570
         H           -0.593132000000     0.273354000000     2.341271000000     1.007825032230
         H           -1.651095000000     0.407133000000     3.553063000000     1.007825032230
         O            3.026441000000     0.116813000000     0.654019000000    15.994914619570
         H            3.740367000000    -0.459401000000     0.917951000000     1.007825032230
         H            2.256261000000    -0.016604000000     1.231702000000     1.007825032230
         O           -3.062313000000     1.140314000000    -0.135008000000    15.994914619570
         H           -3.441508000000     1.597141000000     0.629278000000     1.007825032230
         H           -2.174978000000     0.899555000000     0.162993000000     1.007825032230
         O            0.894047000000     2.914112000000    -0.227527000000    15.994914619570
         H            1.684458000000     3.103862000000     0.278795000000     1.007825032230
         H            0.585305000000     2.078635000000     0.100756000000     1.007825032230

  Charge       = 0
  Multiplicity = 1
  Basis Set: AUG-CC-PVTZ
    Blend: AUG-CC-PVTZ
  Basis Set: (AUG-CC-PVTZ AUX)
    Blend: AUG-CC-PVTZ-JKFIT

    Orbital Energies [Eh]
    ---------------------

    Doubly Occupied:

       1A    -20.589160     2A    -20.583629     3A    -20.581069
       4A    -20.574120     5A    -20.569431     6A     -1.370405
       7A     -1.363284     8A     -1.363201     9A     -1.358510
      10A     -1.358106    11A     -0.758133    12A     -0.742035
      13A     -0.725701    14A     -0.723457    15A     -0.717685
      16A     -0.599272    17A     -0.594923    18A     -0.591072
      19A     -0.589618    20A     -0.585264    21A     -0.532104
      22A     -0.527904    23A     -0.523313    24A     -0.513512
      25A     -0.513150

  @DF-RHF Final Energy:  -380.29312968117267

   => Energetics <=

    Nuclear Repulsion Energy =            161.5710671146396749
    One-Electron Energy =                -845.8322648724418968
    Two-Electron Energy =                 303.9680680766294927
    Total Energy =                       -380.2931296811726725
 Dipole X            :        -36.6393679           36.4938486           -0.1455193
 Dipole Y            :        -26.5909767           26.3441126           -0.2468641
 Dipole Z            :        -69.2105261           69.9295893            0.7190632
 Magnitude           :                                                    0.7740605

    SAPT Results
  --------------------------------------------------------------------------------------------------------
    Electrostatics                -86.01798727 [mEh]     -53.97710193 [kcal/mol]    -225.84019446 [kJ/mol]
      Elst10,r                    -84.50774957 [mEh]     -53.02941346 [kcal/mol]    -221.87506593 [kJ/mol]
      Elst12,r                     -1.51023770 [mEh]      -0.94768846 [kcal/mol]      -3.96512853 [kJ/mol]

    Exchange                       69.79498863 [mEh]      43.79701658 [kcal/mol]     183.24671739 [kJ/mol]
      Exch10                       61.71670296 [mEh]      38.72781580 [kcal/mol]     162.03718130 [kJ/mol]
      Exch10(S^2)                  61.22336579 [mEh]      38.41824205 [kcal/mol]     160.74192474 [kJ/mol]
      Exch11(S^2)                   2.23930596 [mEh]       1.40518570 [kcal/mol]       5.87929698 [kJ/mol]
      Exch12(S^2)                   5.83897971 [mEh]       3.66401508 [kcal/mol]      15.33023911 [kJ/mol]

    Induction                     -34.13525563 [mEh]     -21.42019630 [kcal/mol]     -89.62210132 [kJ/mol]
      Ind20,r                     -52.38602498 [mEh]     -32.87272697 [kcal/mol]    -137.53948964 [kJ/mol]
      Ind22                        -6.68824814 [mEh]      -4.19693907 [kcal/mol]     -17.55999306 [kJ/mol]
      Exch-Ind20,r                 28.64042115 [mEh]      17.97213561 [kcal/mol]      75.19541538 [kJ/mol]
      Exch-Ind22                    3.65659054 [mEh]       2.29454521 [kcal/mol]       9.60037714 [kJ/mol]
      delta HF,r (2)               -7.35799421 [mEh]      -4.61721108 [kcal/mol]     -19.31841114 [kJ/mol]

    Dispersion                    -25.20375166 [mEh]     -15.81559294 [kcal/mol]     -66.17244087 [kJ/mol]
      Disp20                      -28.47603506 [mEh]     -17.86898177 [kcal/mol]     -74.76381974 [kJ/mol]
      Disp21                        1.88357109 [mEh]       1.18195870 [kcal/mol]       4.94531522 [kJ/mol]
      Disp22 (SDQ)                  0.01623795 [mEh]       0.01018947 [kcal/mol]       0.04263273 [kJ/mol]
      Disp22 (T)                   -4.48542863 [mEh]      -2.81464896 [kcal/mol]     -11.77649126 [kJ/mol]
      Est. Disp22 (T)              -5.17471154 [mEh]      -3.24718052 [kcal/mol]     -13.58620328 [kJ/mol]
      Exch-Disp20                   6.54718590 [mEh]       4.10842118 [kcal/mol]      17.18963421 [kJ/mol]

  Total HF                        -53.89464465 [mEh]     -33.81940010 [kcal/mol]    -141.50037003 [kJ/mol]
  Total SAPT0                     -75.82349381 [mEh]     -47.57996070 [kcal/mol]    -199.07455556 [kJ/mol]
  Total SAPT2                     -72.28710344 [mEh]     -45.36084224 [kcal/mol]    -189.78976392 [kJ/mol]
  Total SAPT2+                    -75.56200594 [mEh]     -47.41587458 [kcal/mol]    -198.38801926 [kJ/mol]

  Special recipe for scaled SAPT0 (see Manual):
    Electrostatics sSAPT0         -84.50774957 [mEh]     -53.02941346 [kcal/mol]    -221.87506593 [kJ/mol]
    Exchange sSAPT0                61.71670296 [mEh]      38.72781580 [kcal/mol]     162.03718130 [kJ/mol]
    Induction sSAPT0              -30.40565154 [mEh]     -19.07983440 [kcal/mol]     -79.83002713 [kJ/mol]
    Dispersion sSAPT0             -21.76929894 [mEh]     -13.66044132 [kcal/mol]     -57.15528649 [kJ/mol]
  Total sSAPT0                    -74.96599709 [mEh]     -47.04187339 [kcal/mol]    -196.82319825 [kJ/mol]
  --------------------------------------------------------------------------------------------------------

*** Psi4 exiting successfully. Buy a developer a beer!
