                               Psi4 1.8.2 release

  ==> Input File <==

--------------------------------------------------------------------------
MEMORY 60 GB

molecule dimer {
-1 1
Cl     0.000000     0.000000     0.000000
--
0 1
O     -2.709595    -0.564414     1.986950
H     -2.012609    -0.356588     1.361955
H     -3.524735    -0.339512     1.483111
O      0.458298    -0.295669     3.415454
H      0.366928     0.233955     2.580124
H      1.441111    -0.213655     3.579034
O      0.964782     1.256879    -2.914500
H      0.751989     0.912790    -2.038240
H      0.228306     1.846266    -3.151398
O     -0.817501    -3.251590     0.551563
H     -1.223410    -3.568100    -0.255690
H     -1.014239    -2.333206     0.731087
O      1.264464     2.704809     0.729411
H      0.706287     1.905591     0.552777
H      1.975961     2.355386     1.286056

units ang
no_reorient
no_com
symmetry c1
}

set {
basis        aug-cc-pVTZ
scf_type     df
}

energy("sapt2+")
--------------------------------------------------------------------------

  //              Dimer HF             //
    Molecular point group: c1
  Charge       = -1
  Multiplicity = 1
  Basis Set: AUG-CC-PVTZ
    Blend: AUG-CC-PVTZ
  Basis Set: (AUG-CC-PVTZ AUX)
    Blend: AUG-CC-PVTZ-JKFIT
  @DF-RHF Final Energy:  -839.92007574248146
    Total Energy =                       -839.9200757424814583
 Dipole X            :         16.6339231          -17.0468925           -0.4129694
 Dipole Y            :          1.6011913           -1.4304339            0.1707574
 Dipole Z            :        -69.6939543           68.5589615           -1.1349928
 Magnitude           :                                                    1.2197994
  //            Monomer A HF           //
    Molecular point group: c1
  Multiplicity = 1
  Basis Set: AUG-CC-PVTZ
    Blend: AUG-CC-PVTZ
  Basis Set: (AUG-CC-PVTZ AUX)
    Blend: AUG-CC-PVTZ-JKFIT
  @DF-RHF Final Energy:  -459.57356840359864
    Total Energy =                       -459.5735684035986424
  //            Monomer B HF           //
    Molecular point group: c1

    Geometry (in Angstrom), charge = 0, multiplicity = 1:

       Center              X                  Y                   Z               Mass
    ------------   -----------------  -----------------  -----------------  -----------------
      Gh(CL)          0.000000000000     0.000000000000     0.000000000000    34.968852682000
         O           -2.709595000000    -0.564414000000     1.986950000000    15.994914619570
         H           -2.012609000000    -0.356588000000     1.361955000000     1.007825032230
         H           -3.524735000000    -0.339512000000     1.483111000000     1.007825032230
         O            0.458298000000    -0.295669000000     3.415454000000    15.994914619570
         H            0.366928000000     0.233955000000     2.580124000000     1.007825032230
         H            1.441111000000    -0.213655000000     3.579034000000     1.007825032230
         O            0.964782000000     1.256879000000    -2.914500000000    15.994914619570
         H            0.751989000000     0.912790000000    -2.038240000000     1.007825032230
         H            0.228306000000     1.846266000000    -3.151398000000     1.007825032230
         O           -0.817501000000    -3.251590000000     0.551563000000    15.994914619570
         H           -1.223410000000    -3.568100000000    -0.255690000000     1.007825032230
         H           -1.014239000000    -2.333206000000     0.731087000000     1.007825032230
         O            1.264464000000     2.704809000000     0.729411000000    15.994914619570
         H            0.706287000000     1.905591000000     0.552777000000     1.007825032230
         H            1.975961000000     2.355386000000     1.286056000000     1.007825032230

  Charge       = 0
  Multiplicity = 1
  Basis Set: AUG-CC-PVTZ
    Blend: AUG-CC-PVTZ
  Basis Set: (AUG-CC-PVTZ AUX)
    Blend: AUG-CC-PVTZ-JKFIT

    Orbital Energies [Eh]
    ---------------------

    Doubly Occupied:

       1A    -20.596979     2A    -20.588374     3A    -20.587668
       4A    -20.578892     5A    -20.564820     6A     -1.368432
       7A     -1.365698     8A     -1.356883     9A     -1.349502
      10A     -1.348403    11A     -0.736972    12A     -0.728637
      13A     -0.723568    14A     -0.723325    15A     -0.700927
      16A     -0.608444    17A     -0.601775    18A     -0.593479
      19A     -0.590071    20A     -0.570223    21A     -0.533728
      22A     -0.527104    23A     -0.519327    24A     -0.518317
      25A     -0.508505

  @DF-RHF Final Energy:  -380.27880467538250

   => Energetics <=

    Nuclear Repulsion Energy =            159.0989958385920602
    One-Electron Energy =                -840.9754854480671611
    Two-Electron Energy =                 301.5976849340926265
    Total Energy =                       -380.2788046753825029
 Dipole X            :         16.5875945          -17.0468925           -0.4592980
 Dipole Y            :          1.9549558           -1.4304339            0.5245219
 Dipole Z            :        -69.3575378           68.5589615           -0.7985763
 Magnitude           :                                                    1.0600953

    SAPT Results
  --------------------------------------------------------------------------------------------------------
    Electrostatics                -95.22162077 [mEh]     -59.75246914 [kcal/mol]    -250.00433089 [kJ/mol]
      Elst10,r                    -95.49924488 [mEh]     -59.92668090 [kcal/mol]    -250.73323288 [kJ/mol]
      Elst12,r                      0.27762411 [mEh]       0.17421176 [kcal/mol]       0.72890199 [kJ/mol]

    Exchange                       66.82079366 [mEh]      41.93068106 [kcal/mol]     175.43796957 [kJ/mol]
      Exch10                       58.39972183 [mEh]      36.64637871 [kcal/mol]     153.32844854 [kJ/mol]
      Exch10(S^2)                  57.77677113 [mEh]      36.25547125 [kcal/mol]     151.69289170 [kJ/mol]
      Exch11(S^2)                   2.83770487 [mEh]       1.78068669 [kcal/mol]       7.45039311 [kJ/mol]
      Exch12(S^2)                   5.58336696 [mEh]       3.50361566 [kcal/mol]      14.65912793 [kJ/mol]

    Induction                     -33.77960799 [mEh]     -21.19702403 [kcal/mol]     -88.68834855 [kJ/mol]
      Ind20,r                     -48.95811262 [mEh]     -30.72167949 [kcal/mol]    -128.53950697 [kJ/mol]
      Ind22                        -6.62833194 [mEh]      -4.15934109 [kcal/mol]     -17.40268311 [kJ/mol]
      Exch-Ind20,r                 25.49612296 [mEh]      15.99905870 [kcal/mol]      66.94006162 [kJ/mol]
      Exch-Ind22                    3.45186440 [mEh]       2.16607762 [kcal/mol]       9.06286874 [kJ/mol]
      delta HF,r (2)               -7.14115080 [mEh]      -4.48113978 [kcal/mol]     -18.74908883 [kJ/mol]

    Dispersion                    -24.67273616 [mEh]     -15.48237568 [kcal/mol]     -64.77825986 [kJ/mol]
      Disp20                      -27.39442878 [mEh]     -17.19026359 [kcal/mol]     -71.92406286 [kJ/mol]
      Disp21                        1.71964221 [mEh]       1.07909178 [kcal/mol]       4.51491999 [kJ/mol]
      Disp22 (SDQ)                 -0.08141973 [mEh]      -0.05109165 [kcal/mol]      -0.21376748 [kJ/mol]
      Disp22 (T)                   -4.44039631 [mEh]      -2.78639075 [kcal/mol]     -11.65825891 [kJ/mol]
      Est. Disp22 (T)              -5.11669366 [mEh]      -3.21077374 [kcal/mol]     -13.43387735 [kJ/mol]
      Exch-Disp20                   6.20016381 [mEh]       3.89066153 [kcal/mol]      16.27852784 [kJ/mol]

  Total HF                        -67.70266350 [mEh]     -42.48406275 [kcal/mol]    -177.75331853 [kJ/mol]
  Total SAPT0                     -88.89692848 [mEh]     -55.78366481 [kcal/mol]    -233.39885356 [kJ/mol]
  Total SAPT2                     -83.37470008 [mEh]     -52.31841417 [kcal/mol]    -218.90024489 [kJ/mol]
  Total SAPT2+                    -86.85317126 [mEh]     -54.50118779 [kcal/mol]    -228.03296973 [kJ/mol]

  Special recipe for scaled SAPT0 (see Manual):
    Electrostatics sSAPT0         -95.49924488 [mEh]     -59.92668090 [kcal/mol]    -250.73323288 [kJ/mol]
    Exchange sSAPT0                58.39972183 [mEh]      36.64637871 [kcal/mol]     153.32844854 [kJ/mol]
    Induction sSAPT0              -29.76951691 [mEh]     -18.68065389 [kcal/mol]     -78.15985588 [kJ/mol]
    Dispersion sSAPT0             -20.99154386 [mEh]     -13.17239264 [kcal/mol]     -55.11329081 [kJ/mol]
  Total sSAPT0                    -87.86058382 [mEh]     -55.13334872 [kcal/mol]    -230.67793103 [kJ/mol]
  --------------------------------------------------------------------------------------------------------

*** Psi4 exiting successfully. Buy a developer a beer!
