                               Psi4 1.8.2 release

  ==> Input File <==

--------------------------------------------------------------------------
MEMORY 60 GB

molecule dimer {
-1 1
Cl     0.000000     0.000000     0.000000
--
0 1
O      1.572535     2.984313     0.080535
H      2.483152     2.774963     0.044021
H      1.091164     2.083829     0.086158
O     -2.519770     0.473353     1.764939
H     -1.730664     0.352182     1.242951
H     -2.351355     1.328225     2.177357
O      1.097544    -1.383699     2.955254
H      0.572761    -1.058492     3.732723
H      0.582499    -1.021529     2.224847
O     -2.152007     2.124199    -0.978722
H     -1.802804     1.460648    -0.427201
H     -1.664805     1.959459    -1.761428
O      2.011060     0.105217    -2.783367
H      1.274497     0.182662    -2.166724
H      2.754003    -0.550445    -2.510663

units ang
no_reorient
no_com
symmetry c1
}

set {
basis        aug-cc-pVTZ
scf_type     df
}

energy("sapt2+")
--------------------------------------------------------------------------

  //              Dimer HF             //
    Molecular point group: c1
  Charge       = -1
  Multiplicity = 1
  Basis Set: AUG-CC-PVTZ
    Blend: AUG-CC-PVTZ
  Basis Set: (AUG-CC-PVTZ AUX)
    Blend: AUG-CC-PVTZ-JKFIT
  @DF-RHF Final Energy:  -839.92304493013967
    Total Energy =                       -839.9230449301396675
 Dipole X            :         -1.5995191            2.4251687            0.8256495
 Dipole Y            :        -80.4784550           79.2524038           -1.2260511
 Dipole Z            :        -20.5008877           20.6946799            0.1937922
 Magnitude           :                                                    1.4907897
  //            Monomer A HF           //
    Molecular point group: c1
  Multiplicity = 1
  Basis Set: AUG-CC-PVTZ
    Blend: AUG-CC-PVTZ
  Basis Set: (AUG-CC-PVTZ AUX)
    Blend: AUG-CC-PVTZ-JKFIT
  @DF-RHF Final Energy:  -459.57357646756458
    Total Energy =                       -459.5735764675645783
  //            Monomer B HF           //
    Molecular point group: c1

    Geometry (in Angstrom), charge = 0, multiplicity = 1:

       Center              X                  Y                   Z               Mass
    ------------   -----------------  -----------------  -----------------  -----------------
      Gh(CL)          0.000000000000     0.000000000000     0.000000000000    34.968852682000
         O            1.572535000000     2.984313000000     0.080535000000    15.994914619570
         H            2.483152000000     2.774963000000     0.044021000000     1.007825032230
         H            1.091164000000     2.083829000000     0.086158000000     1.007825032230
         O           -2.519770000000     0.473353000000     1.764939000000    15.994914619570
         H           -1.730664000000     0.352182000000     1.242951000000     1.007825032230
         H           -2.351355000000     1.328225000000     2.177357000000     1.007825032230
         O            1.097544000000    -1.383699000000     2.955254000000    15.994914619570
         H            0.572761000000    -1.058492000000     3.732723000000     1.007825032230
         H            0.582499000000    -1.021529000000     2.224847000000     1.007825032230
         O           -2.152007000000     2.124199000000    -0.978722000000    15.994914619570
         H           -1.802804000000     1.460648000000    -0.427201000000     1.007825032230
         H           -1.664805000000     1.959459000000    -1.761428000000     1.007825032230
         O            2.011060000000     0.105217000000    -2.783367000000    15.994914619570
         H            1.274497000000     0.182662000000    -2.166724000000     1.007825032230
         H            2.754003000000    -0.550445000000    -2.510663000000     1.007825032230

  Charge       = 0
  Multiplicity = 1
  Basis Set: AUG-CC-PVTZ
    Blend: AUG-CC-PVTZ
  Basis Set: (AUG-CC-PVTZ AUX)
    Blend: AUG-CC-PVTZ-JKFIT

    Orbital Energies [Eh]
    ---------------------

    Doubly Occupied:

       1A    -20.596287     2A    -20.588667     3A    -20.587501
       4A    -20.584984     5A    -20.578024     6A     -1.385674
       7A     -1.380640     8A     -1.361730     9A     -1.358571
      10A     -1.347950    11A     -0.744553    12A     -0.735753
      13A     -0.731369    14A     -0.723144    15A     -0.715627
      16A     -0.617452    17A     -0.609596    18A     -0.603796
      19A     -0.592733    20A     -0.575018    21A     -0.538434
      22A     -0.526217    23A     -0.525715    24A     -0.524366
      25A     -0.520751

  @DF-RHF Final Energy:  -380.27260500552774

   => Energetics <=

    Nuclear Repulsion Energy =            160.1359288687836511
    One-Electron Energy =                -842.7079559940297031
    Two-Electron Energy =                 302.2994221197182583
    Total Energy =                       -380.2726050055277369
 Dipole X            :         -1.6774555            2.4251687            0.7477132
 Dipole Y            :        -79.9078253           79.2524038           -0.6554215
 Dipole Z            :        -20.3021602           20.6946799            0.3925197
 Magnitude           :                                                    1.0689827

    SAPT Results
  --------------------------------------------------------------------------------------------------------
    Electrostatics               -106.92385773 [mEh]     -67.09573370 [kcal/mol]    -280.72854980 [kJ/mol]
      Elst10,r                   -107.56591022 [mEh]     -67.49862772 [kcal/mol]    -282.41425837 [kJ/mol]
      Elst12,r                      0.64205249 [mEh]       0.40289402 [kcal/mol]       1.68570858 [kJ/mol]

    Exchange                       70.51428263 [mEh]      44.24838039 [kcal/mol]     185.13522354 [kJ/mol]
      Exch10                       61.55971799 [mEh]      38.62930624 [kcal/mol]     161.62501732 [kJ/mol]
      Exch10(S^2)                  61.02751706 [mEh]      38.29534512 [kcal/mol]     160.22772397 [kJ/mol]
      Exch11(S^2)                   3.10843520 [mEh]       1.95057253 [kcal/mol]       8.16119548 [kJ/mol]
      Exch12(S^2)                   5.84612944 [mEh]       3.66850161 [kcal/mol]      15.34901074 [kJ/mol]

    Induction                     -34.08017722 [mEh]     -21.38563407 [kcal/mol]     -89.47749296 [kJ/mol]
      Ind20,r                     -50.69279824 [mEh]     -31.81021115 [kcal/mol]    -133.09392344 [kJ/mol]
      Ind22                        -6.89294212 [mEh]      -4.32538648 [kcal/mol]     -18.09741705 [kJ/mol]
      Exch-Ind20,r                 26.99051768 [mEh]      16.93680555 [kcal/mol]      70.86359441 [kJ/mol]
      Exch-Ind22                    3.67002972 [mEh]       2.30297842 [kcal/mol]       9.63566171 [kJ/mol]
      delta HF,r (2)               -7.15498426 [mEh]      -4.48982041 [kcal/mol]     -18.78540858 [kJ/mol]

    Dispersion                    -25.92286388 [mEh]     -16.26684267 [kcal/mol]     -68.06046973 [kJ/mol]
      Disp20                      -28.85841493 [mEh]     -18.10892877 [kcal/mol]     -75.76775797 [kJ/mol]
      Disp21                        1.83207459 [mEh]       1.14964416 [kcal/mol]       4.81011118 [kJ/mol]
      Disp22 (SDQ)                 -0.11018405 [mEh]      -0.06914154 [kcal/mol]      -0.28928819 [kJ/mol]
      Disp22 (T)                   -4.67630318 [mEh]      -2.93442455 [kcal/mol]     -12.27763231 [kJ/mol]
      Est. Disp22 (T)              -5.38042109 [mEh]      -3.37626521 [kcal/mol]     -14.12629363 [kJ/mol]
      Exch-Disp20                   6.59408161 [mEh]       4.13784868 [kcal/mol]      17.31275888 [kJ/mol]

  Total HF                        -76.86345705 [mEh]     -48.23254748 [kcal/mol]    -201.80497868 [kJ/mol]
  Total SAPT0                     -99.12779037 [mEh]     -62.20362757 [kcal/mol]    -260.25997776 [kJ/mol]
  Total SAPT2                     -92.75408564 [mEh]     -58.20406747 [kcal/mol]    -243.52581830 [kJ/mol]
  Total SAPT2+                    -96.41261619 [mEh]     -60.49983005 [kcal/mol]    -253.13128894 [kJ/mol]

  Special recipe for scaled SAPT0 (see Manual):
    Electrostatics sSAPT0        -107.56591022 [mEh]     -67.49862772 [kcal/mol]    -282.41425837 [kJ/mol]
    Exchange sSAPT0                61.55971799 [mEh]      38.62930624 [kcal/mol]     161.62501732 [kJ/mol]
    Induction sSAPT0              -30.14496271 [mEh]     -18.91624968 [kcal/mol]     -79.14558868 [kJ/mol]
    Dispersion sSAPT0             -22.09031005 [mEh]     -13.86187883 [kcal/mol]     -57.99810104 [kJ/mol]
  Total sSAPT0                    -98.24146498 [mEh]     -61.64745000 [kcal/mol]    -257.93293078 [kJ/mol]
  --------------------------------------------------------------------------------------------------------

*** Psi4 exiting successfully. Buy a developer a beer!
