                               Psi4 1.8.2 release

  ==> Input File <==

--------------------------------------------------------------------------
MEMORY 60 GB

molecule dimer {
-1 1
Cl     0.000000     0.000000     0.000000
--
0 1
O     -2.053684     2.304311     0.217814
H     -1.456383     2.956946     0.610925
H     -1.443301     1.666290    -0.182013
O      2.189604     1.887725    -1.286451
H      1.490313     1.304328    -0.911948
H      2.485988     1.522653    -2.115611
O      1.794090    -2.315229    -1.369329
H      1.050639    -2.681183    -1.877896
H      1.473504    -1.592214    -0.862287
O     -1.373675     0.424170    -2.840394
H     -0.768222     0.275953    -3.546434
H     -0.987035     0.245546    -1.972930

units ang
no_reorient
no_com
symmetry c1
}

set {
basis        aug-cc-pVTZ
scf_type     df
}

energy("sapt2+")
--------------------------------------------------------------------------

  //              Dimer HF             //
    Molecular point group: c1
  Charge       = -1
  Multiplicity = 1
  Basis Set: AUG-CC-PVTZ
    Blend: AUG-CC-PVTZ
  Basis Set: (AUG-CC-PVTZ AUX)
    Blend: AUG-CC-PVTZ-JKFIT
  @DF-RHF Final Energy:  -763.86552244479572
    Total Energy =                       -763.8655224447957153
 Dipole X            :        -11.5510839           11.8980615            0.3469776
 Dipole Y            :        -42.6989947           41.7745408           -0.9244539
 Dipole Z            :        100.8583296         -100.3162512            0.5420783
 Magnitude           :                                                    1.1264357
  //            Monomer A HF           //
    Molecular point group: c1
  Multiplicity = 1
  Basis Set: AUG-CC-PVTZ
    Blend: AUG-CC-PVTZ
  Basis Set: (AUG-CC-PVTZ AUX)
    Blend: AUG-CC-PVTZ-JKFIT
  @DF-RHF Final Energy:  -459.57357051868826
    Total Energy =                       -459.5735705186882569
  //            Monomer B HF           //
    Molecular point group: c1

    Geometry (in Angstrom), charge = 0, multiplicity = 1:

       Center              X                  Y                   Z               Mass
    ------------   -----------------  -----------------  -----------------  -----------------
      Gh(CL)          0.000000000000     0.000000000000     0.000000000000    34.968852682000
         O           -2.053684000000     2.304311000000     0.217814000000    15.994914619570
         H           -1.456383000000     2.956946000000     0.610925000000     1.007825032230
         H           -1.443301000000     1.666290000000    -0.182013000000     1.007825032230
         O            2.189604000000     1.887725000000    -1.286451000000    15.994914619570
         H            1.490313000000     1.304328000000    -0.911948000000     1.007825032230
         H            2.485988000000     1.522653000000    -2.115611000000     1.007825032230
         O            1.794090000000    -2.315229000000    -1.369329000000    15.994914619570
         H            1.050639000000    -2.681183000000    -1.877896000000     1.007825032230
         H            1.473504000000    -1.592214000000    -0.862287000000     1.007825032230
         O           -1.373675000000     0.424170000000    -2.840394000000    15.994914619570
         H           -0.768222000000     0.275953000000    -3.546434000000     1.007825032230
         H           -0.987035000000     0.245546000000    -1.972930000000     1.007825032230

  Charge       = 0
  Multiplicity = 1
  Basis Set: AUG-CC-PVTZ
    Blend: AUG-CC-PVTZ
  Basis Set: (AUG-CC-PVTZ AUX)
    Blend: AUG-CC-PVTZ-JKFIT

    Orbital Energies [Eh]
    ---------------------

    Doubly Occupied:

       1A    -20.587565     2A    -20.586773     3A    -20.585672
       4A    -20.576945     5A     -1.373444     6A     -1.372337
       7A     -1.364905     8A     -1.355627     9A     -0.758669
      10A     -0.746856    11A     -0.739990    12A     -0.714935
      13A     -0.599313    14A     -0.594618    15A     -0.591992
      16A     -0.589326    17A     -0.531531    18A     -0.530194
      19A     -0.527006    20A     -0.515910

  @DF-RHF Final Energy:  -304.22952849287424

   => Energetics <=

    Nuclear Repulsion Energy =            110.5048622172743080
    One-Electron Energy =                -638.9815556295346823
    Two-Electron Energy =                 224.2471649193861651
    Total Energy =                       -304.2295284928742376
 Dipole X            :        -11.4128752           11.8980615            0.4851863
 Dipole Y            :        -42.3376855           41.7745408           -0.5631447
 Dipole Z            :        100.0364972         -100.3162512           -0.2797540
 Magnitude           :                                                    0.7942292

    SAPT Results
  --------------------------------------------------------------------------------------------------------
    Electrostatics                -98.74549019 [mEh]     -61.96373058 [kcal/mol]    -259.25624877 [kJ/mol]
      Elst10,r                    -98.35616755 [mEh]     -61.71942694 [kcal/mol]    -258.23408233 [kJ/mol]
      Elst12,r                     -0.38932263 [mEh]      -0.24430364 [kcal/mol]      -1.02216644 [kJ/mol]

    Exchange                       79.23559203 [mEh]      49.72108466 [kcal/mol]     208.03301821 [kJ/mol]
      Exch10                       70.04966515 [mEh]      43.95682852 [kcal/mol]     183.91537053 [kJ/mol]
      Exch10(S^2)                  69.35622913 [mEh]      43.52169085 [kcal/mol]     182.09475450 [kJ/mol]
      Exch11(S^2)                   2.99661106 [mEh]       1.88040183 [kcal/mol]       7.86760125 [kJ/mol]
      Exch12(S^2)                   6.18931581 [mEh]       3.88385431 [kcal/mol]      16.25004643 [kJ/mol]

    Induction                     -37.38238674 [mEh]     -23.45780183 [kcal/mol]     -98.14744287 [kJ/mol]
      Ind20,r                     -55.82968532 [mEh]     -35.03365646 [kcal/mol]    -146.58081861 [kJ/mol]
      Ind22                        -7.39114259 [mEh]      -4.63801200 [kcal/mol]     -19.40544221 [kJ/mol]
      Exch-Ind20,r                 31.16375940 [mEh]      19.55555426 [kcal/mol]      81.82043903 [kJ/mol]
      Exch-Ind22                    4.12568669 [mEh]       2.58890748 [kcal/mol]      10.83198891 [kJ/mol]
      delta HF,r (2)               -9.45100491 [mEh]      -5.93059512 [kcal/mol]     -24.81360998 [kJ/mol]

    Dispersion                    -25.50385195 [mEh]     -16.00390872 [kcal/mol]     -66.96035407 [kJ/mol]
      Disp20                      -29.01888007 [mEh]     -18.20962216 [kcal/mol]     -76.18905912 [kJ/mol]
      Disp21                        1.87449351 [mEh]       1.17626244 [kcal/mol]       4.92148204 [kJ/mol]
      Disp22 (SDQ)                 -0.02593738 [mEh]      -0.01627595 [kcal/mol]      -0.06809859 [kJ/mol]
      Disp22 (T)                   -4.60165197 [mEh]      -2.88758021 [kcal/mol]     -12.08163558 [kJ/mol]
      Est. Disp22 (T)              -5.26901857 [mEh]      -3.30635907 [kcal/mol]     -13.83380636 [kJ/mol]
      Exch-Disp20                   6.93549056 [mEh]       4.35208603 [kcal/mol]      18.20912796 [kJ/mol]

  Total HF                        -62.42343323 [mEh]     -39.17129574 [kcal/mol]    -163.89270137 [kJ/mol]
  Total SAPT0                     -84.50682274 [mEh]     -53.02883187 [kcal/mol]    -221.87263254 [kJ/mol]
  Total SAPT2                     -78.97567441 [mEh]     -49.55798389 [kcal/mol]    -207.35060460 [kJ/mol]
  Total SAPT2+                    -82.39613685 [mEh]     -51.70435648 [kcal/mol]    -216.33102750 [kJ/mol]

  Special recipe for scaled SAPT0 (see Manual):
    Electrostatics sSAPT0         -98.35616755 [mEh]     -61.71942694 [kcal/mol]    -258.23408233 [kJ/mol]
    Exchange sSAPT0                70.04966515 [mEh]      43.95682852 [kcal/mol]     183.91537053 [kJ/mol]
    Induction sSAPT0              -33.17281139 [mEh]     -20.81625342 [kcal/mol]     -87.09520432 [kJ/mol]
    Dispersion sSAPT0             -21.87327585 [mEh]     -13.72568782 [kcal/mol]     -57.42827783 [kJ/mol]
  Total sSAPT0                    -83.35258964 [mEh]     -52.30453966 [kcal/mol]    -218.84219395 [kJ/mol]
  --------------------------------------------------------------------------------------------------------

*** Psi4 exiting successfully. Buy a developer a beer!
