                               Psi4 1.8.2 release

  ==> Input File <==

--------------------------------------------------------------------------
MEMORY 60 GB

molecule dimer {
-1 1
Cl     0.000000     0.000000     0.000000
--
0 1
O     -2.944867    -0.564899    -1.779154
H     -3.524928     0.182418    -1.593240
H     -2.264671    -0.498491    -1.118838
O     -2.727221     1.269441     1.357269
H     -2.050786     0.651012     1.147961
H     -3.477837     0.948943     0.929990
O      2.085863     1.943286     1.689448
H      2.901729     2.319648     1.384240
H      1.848548     1.201502     1.097555
O      0.575664    -2.444183     2.291224
H      0.275698    -1.738441     1.676952
H     -0.166814    -2.631813     2.907550
O     -0.427516     3.289022     1.005525
H     -0.401676     2.496842     0.384779
H      0.441407     3.173898     1.412293

units ang
no_reorient
no_com
symmetry c1
}

set {
basis        aug-cc-pVTZ
scf_type     df
}

energy("sapt2+")
--------------------------------------------------------------------------

  //              Dimer HF             //
    Molecular point group: c1
  Charge       = -1
  Multiplicity = 1
  Basis Set: AUG-CC-PVTZ
    Blend: AUG-CC-PVTZ
  Basis Set: (AUG-CC-PVTZ AUX)
    Blend: AUG-CC-PVTZ-JKFIT
  @DF-RHF Final Energy:  -839.92758552945327
    Total Energy =                       -839.9275855294532676
 Dipole X            :         64.8224374          -64.1069670            0.7154704
 Dipole Y            :        -65.1539355           64.3392295           -0.8147060
 Dipole Z            :        -85.5181315           84.5534106           -0.9647209
 Magnitude           :                                                    1.4513201
  //            Monomer A HF           //
    Molecular point group: c1
  Multiplicity = 1
  Basis Set: AUG-CC-PVTZ
    Blend: AUG-CC-PVTZ
  Basis Set: (AUG-CC-PVTZ AUX)
    Blend: AUG-CC-PVTZ-JKFIT
  @DF-RHF Final Energy:  -459.57356611747969
    Total Energy =                       -459.5735661174796860
  //            Monomer B HF           //
    Molecular point group: c1

    Geometry (in Angstrom), charge = 0, multiplicity = 1:

       Center              X                  Y                   Z               Mass
    ------------   -----------------  -----------------  -----------------  -----------------
      Gh(CL)          0.000000000000     0.000000000000     0.000000000000    34.968852682000
         O           -2.944867000000    -0.564899000000    -1.779154000000    15.994914619570
         H           -3.524928000000     0.182418000000    -1.593240000000     1.007825032230
         H           -2.264671000000    -0.498491000000    -1.118838000000     1.007825032230
         O           -2.727221000000     1.269441000000     1.357269000000    15.994914619570
         H           -2.050786000000     0.651012000000     1.147961000000     1.007825032230
         H           -3.477837000000     0.948943000000     0.929990000000     1.007825032230
         O            2.085863000000     1.943286000000     1.689448000000    15.994914619570
         H            2.901729000000     2.319648000000     1.384240000000     1.007825032230
         H            1.848548000000     1.201502000000     1.097555000000     1.007825032230
         O            0.575664000000    -2.444183000000     2.291224000000    15.994914619570
         H            0.275698000000    -1.738441000000     1.676952000000     1.007825032230
         H           -0.166814000000    -2.631813000000     2.907550000000     1.007825032230
         O           -0.427516000000     3.289022000000     1.005525000000    15.994914619570
         H           -0.401676000000     2.496842000000     0.384779000000     1.007825032230
         H            0.441407000000     3.173898000000     1.412293000000     1.007825032230

  Charge       = 0
  Multiplicity = 1
  Basis Set: AUG-CC-PVTZ
    Blend: AUG-CC-PVTZ
  Basis Set: (AUG-CC-PVTZ AUX)
    Blend: AUG-CC-PVTZ-JKFIT

    Orbital Energies [Eh]
    ---------------------

    Doubly Occupied:

       1A    -20.596852     2A    -20.588113     3A    -20.585544
       4A    -20.577902     5A    -20.548903     6A     -1.384078
       7A     -1.380935     8A     -1.374641     9A     -1.353913
      10A     -1.320217    11A     -0.753642    12A     -0.749885
      13A     -0.737276    14A     -0.724497    15A     -0.672018
      16A     -0.611623    17A     -0.610208    18A     -0.597606
      19A     -0.589203    20A     -0.576291    21A     -0.531508
      22A     -0.530749    23A     -0.527634    24A     -0.522185
      25A     -0.485125

  @DF-RHF Final Energy:  -380.28460418305247

   => Energetics <=

    Nuclear Repulsion Energy =            166.0684620792428632
    One-Electron Energy =                -854.8450297243263094
    Two-Electron Energy =                 308.4919634620309807
    Total Energy =                       -380.2846041830524655
 Dipole X            :         64.5119414          -64.1069670            0.4049743
 Dipole Y            :        -64.8978920           64.3392295           -0.5586625
 Dipole Z            :        -85.0090636           84.5534106           -0.4556529
 Magnitude           :                                                    0.8268782

    SAPT Results
  --------------------------------------------------------------------------------------------------------
    Electrostatics                -86.74007984 [mEh]     -54.43022185 [kcal/mol]    -227.73604824 [kJ/mol]
      Elst10,r                    -87.02822464 [mEh]     -54.61103544 [kcal/mol]    -228.49257230 [kJ/mol]
      Elst12,r                      0.28814480 [mEh]       0.18081359 [kcal/mol]       0.75652407 [kJ/mol]

    Exchange                       48.40707862 [mEh]      30.37590043 [kcal/mol]     127.09276740 [kJ/mol]
      Exch10                       41.96545979 [mEh]      26.33372359 [kcal/mol]     110.18029950 [kJ/mol]
      Exch10(S^2)                  41.78519611 [mEh]      26.22060642 [kcal/mol]     109.70701727 [kJ/mol]
      Exch11(S^2)                   2.05250823 [mEh]       1.28796836 [kcal/mol]       5.38885961 [kJ/mol]
      Exch12(S^2)                   4.38911060 [mEh]       2.75420848 [kcal/mol]      11.52360828 [kJ/mol]

    Induction                     -26.89527162 [mEh]     -16.87703774 [kcal/mol]     -70.61352592 [kJ/mol]
      Ind20,r                     -38.07872483 [mEh]     -23.89476058 [kcal/mol]     -99.97567827 [kJ/mol]
      Ind22                        -5.08241794 [mEh]      -3.18926541 [kcal/mol]     -13.34388646 [kJ/mol]
      Exch-Ind20,r                 19.02738547 [mEh]      11.93986464 [kcal/mol]      49.95639367 [kJ/mol]
      Exch-Ind22                    2.53961039 [mEh]       1.59362958 [kcal/mol]       6.66774616 [kJ/mol]
      delta HF,r (2)               -5.30112472 [mEh]      -3.32650598 [kcal/mol]     -13.91810103 [kJ/mol]

    Dispersion                    -20.69045116 [mEh]     -12.98345412 [kcal/mol]     -54.32277203 [kJ/mol]
      Disp20                      -22.60703811 [mEh]     -14.18613059 [kcal/mol]     -59.35477039 [kJ/mol]
      Disp21                        1.36741950 [mEh]       0.85806869 [kcal/mol]       3.59015940 [kJ/mol]
      Disp22 (SDQ)                 -0.08404371 [mEh]      -0.05273822 [kcal/mol]      -0.22065672 [kJ/mol]
      Disp22 (T)                   -3.68681253 [mEh]      -2.31350979 [kcal/mol]      -9.67972497 [kJ/mol]
      Est. Disp22 (T)              -4.26966820 [mEh]      -2.67925724 [kcal/mol]     -11.21001231 [kJ/mol]
      Exch-Disp20                   4.90287936 [mEh]       3.07660325 [kcal/mol]      12.87250799 [kJ/mol]

  Total HF                        -69.41522892 [mEh]     -43.55871377 [kcal/mol]    -182.24965842 [kJ/mol]
  Total SAPT0                     -87.11938767 [mEh]     -54.66824111 [kcal/mol]    -228.73192082 [kJ/mol]
  Total SAPT2                     -82.93243159 [mEh]     -52.04088651 [kcal/mol]    -217.73906915 [kJ/mol]
  Total SAPT2+                    -85.91872400 [mEh]     -53.91481329 [kcal/mol]    -225.57957879 [kJ/mol]

  Special recipe for scaled SAPT0 (see Manual):
    Electrostatics sSAPT0         -87.02822464 [mEh]     -54.61103544 [kcal/mol]    -228.49257230 [kJ/mol]
    Exchange sSAPT0                41.96545979 [mEh]      26.33372359 [kcal/mol]     110.18029950 [kJ/mol]
    Induction sSAPT0              -24.10514456 [mEh]     -15.12620658 [kcal/mol]     -63.28804832 [kJ/mol]
    Dispersion sSAPT0             -17.64043072 [mEh]     -11.06953740 [kcal/mol]     -46.31494448 [kJ/mol]
  Total sSAPT0                    -86.80834013 [mEh]     -54.47305583 [kcal/mol]    -227.91526560 [kJ/mol]
  --------------------------------------------------------------------------------------------------------

*** Psi4 exiting successfully. Buy a developer a beer!
