                               Psi4 1.8.2 release

  ==> Input File <==

--------------------------------------------------------------------------
MEMORY 60 GB

molecule dimer {
-1 1
Cl     0.000000     0.000000     0.000000
--
0 1
O     -1.550121    -2.503736     1.521143
H     -1.089309    -1.869996     0.932707
H     -1.319323    -2.335642     2.424472
O      0.184732    -2.287568    -2.409063
H      1.112085    -2.569768    -2.573994
H      0.198435    -2.075550    -1.478929
O     -1.452646     2.875747     0.283089
H     -1.016356     3.736085    -0.020414
H     -0.912142     2.095615    -0.030166
O      0.817085     2.063335     2.435791
H      0.226373     1.845365     3.163772
H      0.605925     1.633571     1.595503
O     -2.797363     0.160881    -1.865404
H     -2.079019    -0.043372    -1.312063
H     -2.486557     0.239144    -2.809480

units ang
no_reorient
no_com
symmetry c1
}

set {
basis        aug-cc-pVTZ
scf_type     df
}

energy("sapt2+")
--------------------------------------------------------------------------

  //              Dimer HF             //
    Molecular point group: c1
  Charge       = -1
  Multiplicity = 1
  Basis Set: AUG-CC-PVTZ
    Blend: AUG-CC-PVTZ
  Basis Set: (AUG-CC-PVTZ AUX)
    Blend: AUG-CC-PVTZ-JKFIT
  @DF-RHF Final Energy:  -839.91701465301526
    Total Energy =                       -839.9170146530152579
 Dipole X            :         87.5052119          -85.3143164            2.1908955
 Dipole Y            :         -5.9696466            5.9048726           -0.0647740
 Dipole Z            :          0.6098752           -0.7259270           -0.1160518
 Magnitude           :                                                    2.1949229
  //            Monomer A HF           //
    Molecular point group: c1
  Multiplicity = 1
  Basis Set: AUG-CC-PVTZ
    Blend: AUG-CC-PVTZ
  Basis Set: (AUG-CC-PVTZ AUX)
    Blend: AUG-CC-PVTZ-JKFIT
  @DF-RHF Final Energy:  -459.57357241081070
    Total Energy =                       -459.5735724108106979
  //            Monomer B HF           //
    Molecular point group: c1

    Geometry (in Angstrom), charge = 0, multiplicity = 1:

       Center              X                  Y                   Z               Mass
    ------------   -----------------  -----------------  -----------------  -----------------
      Gh(CL)          0.000000000000     0.000000000000     0.000000000000    34.968852682000
         O           -1.550121000000    -2.503736000000     1.521143000000    15.994914619570
         H           -1.089309000000    -1.869996000000     0.932707000000     1.007825032230
         H           -1.319323000000    -2.335642000000     2.424472000000     1.007825032230
         O            0.184732000000    -2.287568000000    -2.409063000000    15.994914619570
         H            1.112085000000    -2.569768000000    -2.573994000000     1.007825032230
         H            0.198435000000    -2.075550000000    -1.478929000000     1.007825032230
         O           -1.452646000000     2.875747000000     0.283089000000    15.994914619570
         H           -1.016356000000     3.736085000000    -0.020414000000     1.007825032230
         H           -0.912142000000     2.095615000000    -0.030166000000     1.007825032230
         O            0.817085000000     2.063335000000     2.435791000000    15.994914619570
         H            0.226373000000     1.845365000000     3.163772000000     1.007825032230
         H            0.605925000000     1.633571000000     1.595503000000     1.007825032230
         O           -2.797363000000     0.160881000000    -1.865404000000    15.994914619570
         H           -2.079019000000    -0.043372000000    -1.312063000000     1.007825032230
         H           -2.486557000000     0.239144000000    -2.809480000000     1.007825032230

  Charge       = 0
  Multiplicity = 1
  Basis Set: AUG-CC-PVTZ
    Blend: AUG-CC-PVTZ
  Basis Set: (AUG-CC-PVTZ AUX)
    Blend: AUG-CC-PVTZ-JKFIT

    Orbital Energies [Eh]
    ---------------------

    Doubly Occupied:

       1A    -20.588353     2A    -20.581297     3A    -20.580420
       4A    -20.570802     5A    -20.564233     6A     -1.367777
       7A     -1.361902     8A     -1.350518     9A     -1.346701
      10A     -1.334774    11A     -0.741402    12A     -0.740590
      13A     -0.726215    14A     -0.723809    15A     -0.709191
      16A     -0.604869    17A     -0.587068    18A     -0.573711
      19A     -0.571305    20A     -0.570580    21A     -0.528131
      22A     -0.523365    23A     -0.522907    24A     -0.507800
      25A     -0.501644

  @DF-RHF Final Energy:  -380.27520775610475

   => Energetics <=

    Nuclear Repulsion Energy =            160.4126037286881115
    One-Electron Energy =                -843.8168928593075861
    Two-Electron Energy =                 303.1290813745146693
    Total Energy =                       -380.2752077561047486
 Dipole X            :         87.0612886          -85.3143164            1.7469722
 Dipole Y            :         -5.8663107            5.9048726            0.0385618
 Dipole Z            :          0.7079170           -0.7259270           -0.0180099
 Magnitude           :                                                    1.7474905

    SAPT Results
  --------------------------------------------------------------------------------------------------------
    Electrostatics                -94.39674388 [mEh]     -59.23485108 [kcal/mol]    -247.83861692 [kJ/mol]
      Elst10,r                    -94.40256648 [mEh]     -59.23850482 [kcal/mol]    -247.85390416 [kJ/mol]
      Elst12,r                      0.00582260 [mEh]       0.00365374 [kcal/mol]       0.01528724 [kJ/mol]

    Exchange                       62.82949293 [mEh]      39.42610205 [kcal/mol]     164.95881096 [kJ/mol]
      Exch10                       54.59430385 [mEh]      34.25844288 [kcal/mol]     143.33732500 [kJ/mol]
      Exch10(S^2)                  54.21653794 [mEh]      34.02139119 [kcal/mol]     142.34550074 [kJ/mol]
      Exch11(S^2)                   2.66176920 [mEh]       1.67028539 [kcal/mol]       6.98847408 [kJ/mol]
      Exch12(S^2)                   5.57341988 [mEh]       3.49737378 [kcal/mol]      14.63301188 [kJ/mol]

    Induction                     -31.48671602 [mEh]     -19.75821260 [kcal/mol]     -82.66836151 [kJ/mol]
      Ind20,r                     -45.34160407 [mEh]     -28.45228611 [kcal/mol]    -119.04436507 [kJ/mol]
      Ind22                        -6.34141811 [mEh]      -3.97929994 [kcal/mol]     -16.64939094 [kJ/mol]
      Exch-Ind20,r                 23.45885807 [mEh]      14.72065568 [kcal/mol]      61.59122338 [kJ/mol]
      Exch-Ind22                    3.28092555 [mEh]       2.05881187 [kcal/mol]       8.61406885 [kJ/mol]
      delta HF,r (2)               -6.54347747 [mEh]      -4.10609410 [kcal/mol]     -17.17989772 [kJ/mol]

    Dispersion                    -24.34049991 [mEh]     -15.27389429 [kcal/mol]     -63.90597372 [kJ/mol]
      Disp20                      -26.97212987 [mEh]     -16.92526702 [kcal/mol]     -70.81531721 [kJ/mol]
      Disp21                        1.63983568 [mEh]       1.02901242 [kcal/mol]       4.30538798 [kJ/mol]
      Disp22 (SDQ)                 -0.04898454 [mEh]      -0.03073826 [kcal/mol]      -0.12860890 [kJ/mol]
      Disp22 (T)                   -4.36769819 [mEh]      -2.74077199 [kcal/mol]     -11.46739001 [kJ/mol]
      Est. Disp22 (T)              -5.04241004 [mEh]      -3.16416007 [kcal/mol]     -13.23884574 [kJ/mol]
      Exch-Disp20                   6.08318886 [mEh]       3.81725864 [kcal/mol]      15.97141015 [kJ/mol]

  Total HF                        -68.23448610 [mEh]     -42.81778647 [kcal/mol]    -179.14961857 [kJ/mol]
  Total SAPT0                     -89.12342711 [mEh]     -55.92579484 [kcal/mol]    -233.99352563 [kJ/mol]
  Total SAPT2                     -83.94290798 [mEh]     -52.67497001 [kcal/mol]    -220.39207453 [kJ/mol]
  Total SAPT2+                    -87.39446688 [mEh]     -54.84085593 [kcal/mol]    -229.45414119 [kJ/mol]

  Special recipe for scaled SAPT0 (see Manual):
    Electrostatics sSAPT0         -94.40256648 [mEh]     -59.23850482 [kcal/mol]    -247.85390416 [kJ/mol]
    Exchange sSAPT0                54.59430385 [mEh]      34.25844288 [kcal/mol]     143.33732500 [kJ/mol]
    Induction sSAPT0              -27.93243421 [mEh]     -17.52786709 [kcal/mol]     -73.33659591 [kJ/mol]
    Dispersion sSAPT0             -20.76089499 [mEh]     -13.02765829 [kcal/mol]     -54.50772229 [kJ/mol]
  Total sSAPT0                    -88.50159184 [mEh]     -55.53558732 [kcal/mol]    -232.36089736 [kJ/mol]
  --------------------------------------------------------------------------------------------------------

*** Psi4 exiting successfully. Buy a developer a beer!
