                               Psi4 1.8.2 release

  ==> Input File <==

--------------------------------------------------------------------------
MEMORY 60 GB

molecule dimer {
-1 1
Cl     0.000000     0.000000     0.000000
--
0 1
O      2.741234     0.738472    -1.525475
H      2.030876     0.591915    -0.837522
H      3.603201     0.343611    -1.225902
O     -1.282461     2.745085     1.157741
H     -1.948791     2.416369     1.805657
H     -0.745954     1.941353     0.995102
O     -2.297413    -1.049486     2.333506
H     -2.862620    -0.996762     1.560954
H     -1.356740    -0.962436     2.174113
O     -1.160282     1.516406    -2.408583
H     -0.693222     0.915110    -1.786235
H     -0.649383     2.316099    -2.294649
O      1.852777    -0.587624     2.593331
H      2.415237    -1.388943     2.530648
H      1.630884    -0.133154     1.758059

units ang
no_reorient
no_com
symmetry c1
}

set {
basis        aug-cc-pVTZ
scf_type     df
}

energy("sapt2+")
--------------------------------------------------------------------------

  //              Dimer HF             //
    Molecular point group: c1
  Charge       = -1
  Multiplicity = 1
  Basis Set: AUG-CC-PVTZ
    Blend: AUG-CC-PVTZ
  Basis Set: (AUG-CC-PVTZ AUX)
    Blend: AUG-CC-PVTZ-JKFIT
  @DF-RHF Final Energy:  -839.91845465957954
    Total Energy =                       -839.9184546595795382
 Dipole X            :          0.4799142            0.4806103            0.9605245
 Dipole Y            :        -61.9389155           60.3691643           -1.5697512
 Dipole Z            :        -41.2328132           41.3554941            0.1226808
 Magnitude           :                                                    1.8443906
  //            Monomer A HF           //
    Molecular point group: c1
  Multiplicity = 1
  Basis Set: AUG-CC-PVTZ
    Blend: AUG-CC-PVTZ
  Basis Set: (AUG-CC-PVTZ AUX)
    Blend: AUG-CC-PVTZ-JKFIT
  @DF-RHF Final Energy:  -459.57357630126921
    Total Energy =                       -459.5735763012692132
  //            Monomer B HF           //
    Molecular point group: c1

    Geometry (in Angstrom), charge = 0, multiplicity = 1:

       Center              X                  Y                   Z               Mass
    ------------   -----------------  -----------------  -----------------  -----------------
      Gh(CL)          0.000000000000     0.000000000000     0.000000000000    34.968852682000
         O            2.741234000000     0.738472000000    -1.525475000000    15.994914619570
         H            2.030876000000     0.591915000000    -0.837522000000     1.007825032230
         H            3.603201000000     0.343611000000    -1.225902000000     1.007825032230
         O           -1.282461000000     2.745085000000     1.157741000000    15.994914619570
         H           -1.948791000000     2.416369000000     1.805657000000     1.007825032230
         H           -0.745954000000     1.941353000000     0.995102000000     1.007825032230
         O           -2.297413000000    -1.049486000000     2.333506000000    15.994914619570
         H           -2.862620000000    -0.996762000000     1.560954000000     1.007825032230
         H           -1.356740000000    -0.962436000000     2.174113000000     1.007825032230
         O           -1.160282000000     1.516406000000    -2.408583000000    15.994914619570
         H           -0.693222000000     0.915110000000    -1.786235000000     1.007825032230
         H           -0.649383000000     2.316099000000    -2.294649000000     1.007825032230
         O            1.852777000000    -0.587624000000     2.593331000000    15.994914619570
         H            2.415237000000    -1.388943000000     2.530648000000     1.007825032230
         H            1.630884000000    -0.133154000000     1.758059000000     1.007825032230

  Charge       = 0
  Multiplicity = 1
  Basis Set: AUG-CC-PVTZ
    Blend: AUG-CC-PVTZ
  Basis Set: (AUG-CC-PVTZ AUX)
    Blend: AUG-CC-PVTZ-JKFIT

    Orbital Energies [Eh]
    ---------------------

    Doubly Occupied:

       1A    -20.597194     2A    -20.595635     3A    -20.582408
       4A    -20.574732     5A    -20.573309     6A     -1.365336
       7A     -1.357950     8A     -1.355971     9A     -1.352748
      10A     -1.351879    11A     -0.758635    12A     -0.750079
      13A     -0.733168    14A     -0.709292    15A     -0.705651
      16A     -0.594838    17A     -0.592741    18A     -0.591679
      19A     -0.585909    20A     -0.574797    21A     -0.535183
      22A     -0.530661    23A     -0.520463    24A     -0.519166
      25A     -0.510732

  @DF-RHF Final Energy:  -380.27721881979812

   => Energetics <=

    Nuclear Repulsion Energy =            159.2496199952836378
    One-Electron Energy =                -841.2133614836384368
    Two-Electron Energy =                 301.6865226685566768
    Total Energy =                       -380.2772188197981222
 Dipole X            :          0.6973180            0.4806103            1.1779282
 Dipole Y            :        -61.4421973           60.3691643           -1.0730330
 Dipole Z            :        -41.1384718           41.3554941            0.2170223
 Magnitude           :                                                    1.6081086

    SAPT Results
  --------------------------------------------------------------------------------------------------------
    Electrostatics               -105.04648787 [mEh]     -65.91766632 [kcal/mol]    -275.79951590 [kJ/mol]
      Elst10,r                   -104.62741324 [mEh]     -65.65469302 [kcal/mol]    -274.69923561 [kJ/mol]
      Elst12,r                     -0.41907463 [mEh]      -0.26297330 [kcal/mol]      -1.10028029 [kJ/mol]

    Exchange                       80.50580731 [mEh]      50.51815678 [kcal/mol]     211.36796796 [kJ/mol]
      Exch10                       70.54302077 [mEh]      44.26641385 [kcal/mol]     185.21067553 [kJ/mol]
      Exch10(S^2)                  70.01345105 [mEh]      43.93410383 [kcal/mol]     183.82029042 [kJ/mol]
      Exch11(S^2)                   3.33013147 [mEh]       2.08968905 [kcal/mol]       8.74325898 [kJ/mol]
      Exch12(S^2)                   6.63265506 [mEh]       4.16205389 [kcal/mol]      17.41403346 [kJ/mol]

    Induction                     -37.15595878 [mEh]     -23.31571614 [kcal/mol]     -97.55295633 [kJ/mol]
      Ind20,r                     -56.05944819 [mEh]     -35.17783483 [kcal/mol]    -147.18406094 [kJ/mol]
      Ind22                        -7.89173466 [mEh]      -4.95213826 [kcal/mol]     -20.71974650 [kJ/mol]
      Exch-Ind20,r                 30.62291310 [mEh]      19.21616809 [kcal/mol]      80.40044727 [kJ/mol]
      Exch-Ind22                    4.31092193 [mEh]       2.70514435 [kcal/mol]      11.31832398 [kJ/mol]
      delta HF,r (2)               -8.13861096 [mEh]      -5.10705548 [kcal/mol]     -21.36792014 [kJ/mol]

    Dispersion                    -28.14490972 [mEh]     -17.66119749 [kcal/mol]     -73.89445030 [kJ/mol]
      Disp20                      -31.66087430 [mEh]     -19.86749857 [kcal/mol]     -83.12561401 [kJ/mol]
      Disp21                        1.99608419 [mEh]       1.25256174 [kcal/mol]       5.24071833 [kJ/mol]
      Disp22 (SDQ)                 -0.04100721 [mEh]      -0.02573241 [kcal/mol]      -0.10766441 [kJ/mol]
      Disp22 (T)                   -5.10910333 [mEh]      -3.20601074 [kcal/mol]     -13.41394894 [kJ/mol]
      Est. Disp22 (T)              -5.86087030 [mEh]      -3.67775164 [kcal/mol]     -15.38771286 [kJ/mol]
      Exch-Disp20                   7.42175789 [mEh]       4.65722339 [kcal/mol]      19.48582265 [kJ/mol]

  Total HF                        -67.65953851 [mEh]     -42.45700141 [kcal/mol]    -177.64009389 [kJ/mol]
  Total SAPT0                     -91.89865492 [mEh]     -57.66727659 [kcal/mol]    -241.27988525 [kJ/mol]
  Total SAPT2                     -85.93575575 [mEh]     -53.92550087 [kcal/mol]    -225.62429563 [kJ/mol]
  Total SAPT2+                    -89.84154906 [mEh]     -56.37642318 [kcal/mol]    -235.87895457 [kJ/mol]

  Special recipe for scaled SAPT0 (see Manual):
    Electrostatics sSAPT0        -104.62741324 [mEh]     -65.65469302 [kcal/mol]    -274.69923561 [kJ/mol]
    Exchange sSAPT0                70.54302077 [mEh]      44.26641385 [kcal/mol]     185.21067553 [kJ/mol]
    Induction sSAPT0              -32.87499748 [mEh]     -20.62937237 [kcal/mol]     -86.31329400 [kJ/mol]
    Dispersion sSAPT0             -24.06942866 [mEh]     -15.10379451 [kcal/mol]     -63.19427624 [kJ/mol]
  Total sSAPT0                    -91.02881861 [mEh]     -57.12144606 [kcal/mol]    -238.99613032 [kJ/mol]
  --------------------------------------------------------------------------------------------------------

*** Psi4 exiting successfully. Buy a developer a beer!
