                               Psi4 1.8.2 release

  ==> Input File <==

--------------------------------------------------------------------------
MEMORY 60 GB

molecule dimer {
-1 1
Cl     0.000000     0.000000     0.000000
--
0 1
O      2.811402     1.308917    -0.646326
H      3.234332     1.474802     0.204983
H      1.945733     1.073091    -0.492024
O     -0.273559     0.917934     3.152329
H      0.136827     0.212370     3.671469
H     -0.689970     0.389828     2.431398
O      1.522141    -0.653873    -2.674542
H      1.073915    -0.132792    -3.377375
H      0.886423    -0.702472    -1.962450
O     -2.674822     0.576166    -1.781221
H     -1.954057     0.567322    -1.167115
H     -2.728762     1.502340    -2.123526
O      0.142016    -3.064361    -0.765164
H      0.999542    -3.491946    -0.855143
H      0.263409    -2.296723    -0.197218

units ang
no_reorient
no_com
symmetry c1
}

set {
basis        aug-cc-pVTZ
scf_type     df
}

energy("sapt2+")
--------------------------------------------------------------------------

  //              Dimer HF             //
    Molecular point group: c1
  Charge       = -1
  Multiplicity = 1
  Basis Set: AUG-CC-PVTZ
    Blend: AUG-CC-PVTZ
  Basis Set: (AUG-CC-PVTZ AUX)
    Blend: AUG-CC-PVTZ-JKFIT
  @DF-RHF Final Energy:  -839.91923046537363
    Total Energy =                       -839.9192304653736301
 Dipole X            :        -29.1210919           29.0730887           -0.0480031
 Dipole Y            :         16.8509262          -16.4895914            0.3613347
 Dipole Z            :         49.6541392          -48.3512753            1.3028639
 Magnitude           :                                                    1.3528937
  //            Monomer A HF           //
    Molecular point group: c1
  Multiplicity = 1
  Basis Set: AUG-CC-PVTZ
    Blend: AUG-CC-PVTZ
  Basis Set: (AUG-CC-PVTZ AUX)
    Blend: AUG-CC-PVTZ-JKFIT
  @DF-RHF Final Energy:  -459.57357585485886
    Total Energy =                       -459.5735758548588592
  //            Monomer B HF           //
    Molecular point group: c1

    Geometry (in Angstrom), charge = 0, multiplicity = 1:

       Center              X                  Y                   Z               Mass
    ------------   -----------------  -----------------  -----------------  -----------------
      Gh(CL)          0.000000000000     0.000000000000     0.000000000000    34.968852682000
         O            2.811402000000     1.308917000000    -0.646326000000    15.994914619570
         H            3.234332000000     1.474802000000     0.204983000000     1.007825032230
         H            1.945733000000     1.073091000000    -0.492024000000     1.007825032230
         O           -0.273559000000     0.917934000000     3.152329000000    15.994914619570
         H            0.136827000000     0.212370000000     3.671469000000     1.007825032230
         H           -0.689970000000     0.389828000000     2.431398000000     1.007825032230
         O            1.522141000000    -0.653873000000    -2.674542000000    15.994914619570
         H            1.073915000000    -0.132792000000    -3.377375000000     1.007825032230
         H            0.886423000000    -0.702472000000    -1.962450000000     1.007825032230
         O           -2.674822000000     0.576166000000    -1.781221000000    15.994914619570
         H           -1.954057000000     0.567322000000    -1.167115000000     1.007825032230
         H           -2.728762000000     1.502340000000    -2.123526000000     1.007825032230
         O            0.142016000000    -3.064361000000    -0.765164000000    15.994914619570
         H            0.999542000000    -3.491946000000    -0.855143000000     1.007825032230
         H            0.263409000000    -2.296723000000    -0.197218000000     1.007825032230

  Charge       = 0
  Multiplicity = 1
  Basis Set: AUG-CC-PVTZ
    Blend: AUG-CC-PVTZ
  Basis Set: (AUG-CC-PVTZ AUX)
    Blend: AUG-CC-PVTZ-JKFIT

    Orbital Energies [Eh]
    ---------------------

    Doubly Occupied:

       1A    -20.591135     2A    -20.581828     3A    -20.578198
       4A    -20.565517     5A    -20.561547     6A     -1.365458
       7A     -1.362040     8A     -1.360997     9A     -1.360739
      10A     -1.344423    11A     -0.736888    12A     -0.732496
      13A     -0.728360    14A     -0.718223    15A     -0.709458
      16A     -0.607527    17A     -0.592629    18A     -0.589463
      19A     -0.582021    20A     -0.576752    21A     -0.528687
      22A     -0.522752    23A     -0.522160    24A     -0.512854
      25A     -0.500952

  @DF-RHF Final Energy:  -380.28764238622369

   => Energetics <=

    Nuclear Repulsion Energy =            160.7574294999686799
    One-Electron Energy =                -844.4239324569703058
    Two-Electron Energy =                 303.3788605707779311
    Total Energy =                       -380.2876423862236948
 Dipole X            :        -28.9795151           29.0730887            0.0935736
 Dipole Y            :         16.7189112          -16.4895914            0.2293198
 Dipole Z            :         49.3412351          -48.3512753            0.9899598
 Magnitude           :                                                    1.0204724

    SAPT Results
  --------------------------------------------------------------------------------------------------------
    Electrostatics                -96.95082314 [mEh]     -60.83756001 [kcal/mol]    -254.54435109 [kJ/mol]
      Elst10,r                    -95.95935343 [mEh]     -60.21540338 [kcal/mol]    -251.94124773 [kJ/mol]
      Elst12,r                     -0.99146971 [mEh]      -0.62215664 [kcal/mol]      -2.60310336 [kJ/mol]

    Exchange                       76.10191347 [mEh]      47.75467168 [kcal/mol]     199.80554629 [kJ/mol]
      Exch10                       66.82156668 [mEh]      41.93116614 [kcal/mol]     175.43999914 [kJ/mol]
      Exch10(S^2)                  66.41404584 [mEh]      41.67544296 [kcal/mol]     174.37005334 [kJ/mol]
      Exch11(S^2)                   2.78022849 [mEh]       1.74461971 [kcal/mol]       7.29948888 [kJ/mol]
      Exch12(S^2)                   6.50011831 [mEh]       4.07888582 [kcal/mol]      17.06605827 [kJ/mol]

    Induction                     -32.04870754 [mEh]     -20.11086761 [kcal/mol]     -84.14387007 [kJ/mol]
      Ind20,r                     -52.76934385 [mEh]     -33.11326319 [kcal/mol]    -138.54589319 [kJ/mol]
      Ind22                        -7.49125653 [mEh]      -4.70083444 [kcal/mol]     -19.66829130 [kJ/mol]
      Exch-Ind20,r                 30.40939063 [mEh]      19.08218071 [kcal/mol]      79.83984410 [kJ/mol]
      Exch-Ind22                    4.31698652 [mEh]       2.70894994 [kcal/mol]      11.33424654 [kJ/mol]
      delta HF,r (2)               -6.51448432 [mEh]      -4.08790063 [kcal/mol]     -17.10377623 [kJ/mol]

    Dispersion                    -27.11336886 [mEh]     -17.01389583 [kcal/mol]     -71.18614014 [kJ/mol]
      Disp20                      -30.67884494 [mEh]     -19.25126584 [kcal/mol]     -80.54729628 [kJ/mol]
      Disp21                        1.94853169 [mEh]       1.22272209 [kcal/mol]       5.11586924 [kJ/mol]
      Disp22 (SDQ)                 -0.04476181 [mEh]      -0.02808846 [kcal/mol]      -0.11752212 [kJ/mol]
      Disp22 (T)                   -4.85095087 [mEh]      -3.04401763 [kcal/mol]     -12.73616976 [kJ/mol]
      Est. Disp22 (T)              -5.60256973 [mEh]      -3.51566558 [kcal/mol]     -14.70954480 [kJ/mol]
      Exch-Disp20                   7.26427593 [mEh]       4.55840196 [kcal/mol]      19.07235382 [kJ/mol]

  Total HF                        -58.01222429 [mEh]     -36.40322034 [kcal/mol]    -152.31107389 [kJ/mol]
  Total SAPT0                     -81.42679330 [mEh]     -51.09608422 [kcal/mol]    -213.78601636 [kJ/mol]
  Total SAPT2                     -76.31218622 [mEh]     -47.88661982 [kcal/mol]    -200.35761733 [kJ/mol]
  Total SAPT2+                    -80.01098608 [mEh]     -50.20765177 [kcal/mol]    -210.06881500 [kJ/mol]

  Special recipe for scaled SAPT0 (see Manual):
    Electrostatics sSAPT0         -95.95935343 [mEh]     -60.21540338 [kcal/mol]    -251.94124773 [kJ/mol]
    Exchange sSAPT0                66.82156668 [mEh]      41.93116614 [kcal/mol]     175.43999914 [kJ/mol]
    Induction sSAPT0              -28.31121376 [mEh]     -17.76555485 [kcal/mol]     -74.33108148 [kJ/mol]
    Dispersion sSAPT0             -23.28002462 [mEh]     -14.60843600 [kcal/mol]     -61.12169621 [kJ/mol]
  Total sSAPT0                    -80.72902513 [mEh]     -50.65822808 [kcal/mol]    -211.95402627 [kJ/mol]
  --------------------------------------------------------------------------------------------------------

*** Psi4 exiting successfully. Buy a developer a beer!
