                               Psi4 1.8.2 release

  ==> Input File <==

--------------------------------------------------------------------------
MEMORY 60 GB

molecule dimer {
-1 1
Cl     0.000000     0.000000     0.000000
--
0 1
O      2.347456    -0.658120     1.836924
H      1.503461    -0.342108     1.498010
H      3.023913    -0.371611     1.184006
O      1.476974    -2.981181    -0.401283
H      1.428877    -2.124141     0.044335
H      0.987391    -2.973805    -1.261521
O      1.221048    -0.028193    -3.177290
H      0.809868    -0.267015    -2.372466
H      1.740949     0.746334    -2.920550
O     -0.343156     1.510349     2.607781
H     -0.163751     0.855136     1.877864
H      0.291671     2.275670     2.361551
O     -1.949830    -2.734697     0.889703
H     -2.584009    -2.204144     1.367376
H     -1.302316    -2.065112     0.692981

units ang
no_reorient
no_com
symmetry c1
}

set {
basis        aug-cc-pVTZ
scf_type     df
}

energy("sapt2+")
--------------------------------------------------------------------------

  //              Dimer HF             //
    Molecular point group: c1
  Charge       = -1
  Multiplicity = 1
  Basis Set: AUG-CC-PVTZ
    Blend: AUG-CC-PVTZ
  Basis Set: (AUG-CC-PVTZ AUX)
    Blend: AUG-CC-PVTZ-JKFIT
  @DF-RHF Final Energy:  -839.92171600261963
    Total Energy =                       -839.9217160026196325
 Dipole X            :        -52.6649038           52.4512194           -0.2136843
 Dipole Y            :         88.5768355          -86.1819653            2.3948702
 Dipole Z            :        -32.2091943           31.2149988           -0.9941955
 Magnitude           :                                                    2.6018241
  //            Monomer A HF           //
    Molecular point group: c1
  Multiplicity = 1
  Basis Set: AUG-CC-PVTZ
    Blend: AUG-CC-PVTZ
  Basis Set: (AUG-CC-PVTZ AUX)
    Blend: AUG-CC-PVTZ-JKFIT
  @DF-RHF Final Energy:  -459.57357565660845
    Total Energy =                       -459.5735756566084547
  //            Monomer B HF           //
    Molecular point group: c1

    Geometry (in Angstrom), charge = 0, multiplicity = 1:

       Center              X                  Y                   Z               Mass
    ------------   -----------------  -----------------  -----------------  -----------------
      Gh(CL)          0.000000000000     0.000000000000     0.000000000000    34.968852682000
         O            2.347456000000    -0.658120000000     1.836924000000    15.994914619570
         H            1.503461000000    -0.342108000000     1.498010000000     1.007825032230
         H            3.023913000000    -0.371611000000     1.184006000000     1.007825032230
         O            1.476974000000    -2.981181000000    -0.401283000000    15.994914619570
         H            1.428877000000    -2.124141000000     0.044335000000     1.007825032230
         H            0.987391000000    -2.973805000000    -1.261521000000     1.007825032230
         O            1.221048000000    -0.028193000000    -3.177290000000    15.994914619570
         H            0.809868000000    -0.267015000000    -2.372466000000     1.007825032230
         H            1.740949000000     0.746334000000    -2.920550000000     1.007825032230
         O           -0.343156000000     1.510349000000     2.607781000000    15.994914619570
         H           -0.163751000000     0.855136000000     1.877864000000     1.007825032230
         H            0.291671000000     2.275670000000     2.361551000000     1.007825032230
         O           -1.949830000000    -2.734697000000     0.889703000000    15.994914619570
         H           -2.584009000000    -2.204144000000     1.367376000000     1.007825032230
         H           -1.302316000000    -2.065112000000     0.692981000000     1.007825032230

  Charge       = 0
  Multiplicity = 1
  Basis Set: AUG-CC-PVTZ
    Blend: AUG-CC-PVTZ
  Basis Set: (AUG-CC-PVTZ AUX)
    Blend: AUG-CC-PVTZ-JKFIT

    Orbital Energies [Eh]
    ---------------------

    Doubly Occupied:

       1A    -20.604277     2A    -20.602866     3A    -20.589477
       4A    -20.576105     5A    -20.574524     6A     -1.381133
       7A     -1.379126     8A     -1.366538     9A     -1.356061
      10A     -1.345468    11A     -0.747351    12A     -0.739271
      13A     -0.726381    14A     -0.716907    15A     -0.710455
      16A     -0.612849    17A     -0.611758    18A     -0.603418
      19A     -0.601944    20A     -0.573602    21A     -0.542436
      22A     -0.533484    23A     -0.531449    24A     -0.518982
      25A     -0.512614

  @DF-RHF Final Energy:  -380.27416831557605

   => Energetics <=

    Nuclear Repulsion Energy =            165.2048656377518796
    One-Electron Energy =                -852.8411086704288664
    Two-Electron Energy =                 307.3620747171008816
    Total Energy =                       -380.2741683155760484
 Dipole X            :        -52.2364681           52.4512194            0.2147513
 Dipole Y            :         88.3186144          -86.1819653            2.1366491
 Dipole Z            :        -31.7535741           31.2149988           -0.5385753
 Magnitude           :                                                    2.2139221

    SAPT Results
  --------------------------------------------------------------------------------------------------------
    Electrostatics               -115.78747901 [mEh]     -72.65774002 [kcal/mol]    -303.99998425 [kJ/mol]
      Elst10,r                   -116.39035684 [mEh]     -73.03605158 [kcal/mol]    -305.58283979 [kJ/mol]
      Elst12,r                      0.60287784 [mEh]       0.37831155 [kcal/mol]       1.58285554 [kJ/mol]

    Exchange                       87.23439897 [mEh]      54.74041179 [kcal/mol]     229.03388294 [kJ/mol]
      Exch10                       76.43924482 [mEh]      47.96635029 [kcal/mol]     200.69120962 [kJ/mol]
      Exch10(S^2)                  75.41173361 [mEh]      47.32157727 [kcal/mol]     197.99347931 [kJ/mol]
      Exch11(S^2)                   3.65729634 [mEh]       2.29498810 [kcal/mol]       9.60223021 [kJ/mol]
      Exch12(S^2)                   7.13785781 [mEh]       4.47907340 [kcal/mol]      18.74044311 [kJ/mol]

    Induction                     -37.80426821 [mEh]     -23.72253645 [kcal/mol]     -99.25509251 [kJ/mol]
      Ind20,r                     -60.00129293 [mEh]     -37.65137975 [kcal/mol]    -157.53337288 [kJ/mol]
      Ind22                        -8.87318538 [mEh]      -5.56800789 [kcal/mol]     -23.29654500 [kJ/mol]
      Exch-Ind20,r                 34.41793477 [mEh]      21.59758013 [kcal/mol]      90.36427528 [kJ/mol]
      Exch-Ind22                    5.08983558 [mEh]       3.19392005 [kcal/mol]      13.36336147 [kJ/mol]
      delta HF,r (2)               -8.43756025 [mEh]      -5.29464899 [kcal/mol]     -22.15281138 [kJ/mol]

    Dispersion                    -29.01700932 [mEh]     -18.20844825 [kcal/mol]     -76.18414746 [kJ/mol]
      Disp20                      -32.89014924 [mEh]     -20.63888024 [kcal/mol]     -86.35307492 [kJ/mol]
      Disp21                        2.33823224 [mEh]       1.46726288 [kcal/mol]       6.13902790 [kJ/mol]
      Disp22 (SDQ)                 -0.20753434 [mEh]      -0.13022976 [kcal/mol]      -0.54488133 [kJ/mol]
      Disp22 (T)                   -5.35963924 [mEh]      -3.36322440 [kcal/mol]     -14.07173089 [kJ/mol]
      Est. Disp22 (T)              -6.12415300 [mEh]      -3.84296403 [kcal/mol]     -16.07896149 [kJ/mol]
      Exch-Disp20                   7.86659502 [mEh]       4.93636290 [kcal/mol]      20.65374239 [kJ/mol]

  Total HF                        -73.97203044 [mEh]     -46.41814989 [kcal/mol]    -194.21353915 [kJ/mol]
  Total SAPT0                     -98.99558465 [mEh]     -62.12066723 [kcal/mol]    -259.91287169 [kJ/mol]
  Total SAPT2                     -91.38090246 [mEh]     -57.34238202 [kcal/mol]    -239.92052636 [kJ/mol]
  Total SAPT2+                    -95.37435756 [mEh]     -59.84831293 [kcal/mol]    -250.40534128 [kJ/mol]

  Special recipe for scaled SAPT0 (see Manual):
    Electrostatics sSAPT0        -116.39035684 [mEh]     -73.03605158 [kcal/mol]    -305.58283979 [kJ/mol]
    Exchange sSAPT0                76.43924482 [mEh]      47.96635029 [kcal/mol]     200.69120962 [kJ/mol]
    Induction sSAPT0              -32.59479311 [mEh]     -20.45354147 [kcal/mol]     -85.57761753 [kJ/mol]
    Dispersion sSAPT0             -24.69759770 [mEh]     -15.49797653 [kcal/mol]     -64.84353382 [kJ/mol]
  Total sSAPT0                    -97.24350283 [mEh]     -61.02121929 [kcal/mol]    -255.31278152 [kJ/mol]
  --------------------------------------------------------------------------------------------------------

*** Psi4 exiting successfully. Buy a developer a beer!
