                               Psi4 1.8.2 release

  ==> Input File <==

--------------------------------------------------------------------------
MEMORY 60 GB

molecule dimer {
-1 1
Cl     0.000000     0.000000     0.000000
--
0 1
O     -1.308514    -3.021033     0.224570
H     -0.936905    -2.106332     0.230301
H     -1.583115    -3.224008    -0.634500
O      2.034987    -2.736438     0.261525
H      1.926419    -3.209727     1.152196
H      1.340897    -2.074538     0.255592
O      2.614152     1.974738    -1.057657
H      2.604676     1.369411    -0.325218
H      3.499309     2.340070    -1.031330
O     -0.443471     1.169568    -3.144304
H     -0.589228     0.505431    -2.398513
H     -0.814852     0.803347    -3.980457
O      3.188344    -0.067036     1.347838
H      3.603647     0.506360     1.946832
H      2.585837    -0.642943     1.833742
O      0.074816    -0.986092     3.001192
H     -0.185721    -0.495387     2.211357
H     -0.346700    -0.687598     3.778177
O     -3.028136    -0.051263     0.795317
H     -3.215716     0.852168     1.057333
H     -2.058031    -0.146230     0.730970

units ang
no_reorient
no_com
symmetry c1
}

set {
basis        aug-cc-pVTZ
scf_type     df
}

energy("sapt2+")
--------------------------------------------------------------------------

  //              Dimer HF             //
    Molecular point group: c1
  Charge       = -1
  Multiplicity = 1
  Basis Set: AUG-CC-PVTZ
    Blend: AUG-CC-PVTZ
  Basis Set: (AUG-CC-PVTZ AUX)
    Blend: AUG-CC-PVTZ-JKFIT
  @DF-RHF Final Energy:  -992.03646044839411
    Total Energy =                       -992.0364604483941093
 Dipole X            :        -58.4203998           58.3697491           -0.0506507
 Dipole Y            :         69.1742659          -67.9364555            1.2378105
 Dipole Z            :        -29.6711402           30.7162321            1.0450919
 Magnitude           :                                                    1.6207891
  //            Monomer A HF           //
    Molecular point group: c1
  Multiplicity = 1
  Basis Set: AUG-CC-PVTZ
    Blend: AUG-CC-PVTZ
  Basis Set: (AUG-CC-PVTZ AUX)
    Blend: AUG-CC-PVTZ-JKFIT
  @DF-RHF Final Energy:  -459.57359436524911
    Total Energy =                       -459.5735943652491642
  //            Monomer B HF           //
    Molecular point group: c1

    Geometry (in Angstrom), charge = 0, multiplicity = 1:

       Center              X                  Y                   Z               Mass
    ------------   -----------------  -----------------  -----------------  -----------------
      Gh(CL)          0.000000000000     0.000000000000     0.000000000000    34.968852682000
         O           -1.308514000000    -3.021033000000     0.224570000000    15.994914619570
         H           -0.936905000000    -2.106332000000     0.230301000000     1.007825032230
         H           -1.583115000000    -3.224008000000    -0.634500000000     1.007825032230
         O            2.034987000000    -2.736438000000     0.261525000000    15.994914619570
         H            1.926419000000    -3.209727000000     1.152196000000     1.007825032230
         H            1.340897000000    -2.074538000000     0.255592000000     1.007825032230
         O            2.614152000000     1.974738000000    -1.057657000000    15.994914619570
         H            2.604676000000     1.369411000000    -0.325218000000     1.007825032230
         H            3.499309000000     2.340070000000    -1.031330000000     1.007825032230
         O           -0.443471000000     1.169568000000    -3.144304000000    15.994914619570
         H           -0.589228000000     0.505431000000    -2.398513000000     1.007825032230
         H           -0.814852000000     0.803347000000    -3.980457000000     1.007825032230
         O            3.188344000000    -0.067036000000     1.347838000000    15.994914619570
         H            3.603647000000     0.506360000000     1.946832000000     1.007825032230
         H            2.585837000000    -0.642943000000     1.833742000000     1.007825032230
         O            0.074816000000    -0.986092000000     3.001192000000    15.994914619570
         H           -0.185721000000    -0.495387000000     2.211357000000     1.007825032230
         H           -0.346700000000    -0.687598000000     3.778177000000     1.007825032230
         O           -3.028136000000    -0.051263000000     0.795317000000    15.994914619570
         H           -3.215716000000     0.852168000000     1.057333000000     1.007825032230
         H           -2.058031000000    -0.146230000000     0.730970000000     1.007825032230

  Charge       = 0
  Multiplicity = 1
  Basis Set: AUG-CC-PVTZ
    Blend: AUG-CC-PVTZ
  Basis Set: (AUG-CC-PVTZ AUX)
    Blend: AUG-CC-PVTZ-JKFIT

    Orbital Energies [Eh]
    ---------------------

    Doubly Occupied:

       1A    -20.596705     2A    -20.590068     3A    -20.577665
       4A    -20.574784     5A    -20.569182     6A    -20.567004
       7A    -20.542549     8A     -1.387208     9A     -1.370083
      10A     -1.368359    11A     -1.364876    12A     -1.337618
      13A     -1.332922    14A     -1.325768    15A     -0.776001
      16A     -0.746012    17A     -0.745472    18A     -0.735924
      19A     -0.700349    20A     -0.699636    21A     -0.696030
      22A     -0.607337    23A     -0.597107    24A     -0.595406
      25A     -0.588473    26A     -0.576229    27A     -0.564851
      28A     -0.560895    29A     -0.544056    30A     -0.529871
      31A     -0.524732    32A     -0.522111    33A     -0.502080
      34A     -0.500188    35A     -0.487830

  @DF-RHF Final Energy:  -532.39840896172109

   => Energetics <=

    Nuclear Repulsion Energy =            311.2337889672678557
    One-Electron Energy =               -1354.6536270686331136
    Two-Electron Energy =                 511.0214291396441695
    Total Energy =                       -532.3984089617210884
 Dipole X            :        -58.7520511           58.3697491           -0.3823021
 Dipole Y            :         68.5470143          -67.9364555            0.6105588
 Dipole Z            :        -29.2830008           30.7162321            1.4332313
 Magnitude           :                                                    1.6040851

    SAPT Results
  --------------------------------------------------------------------------------------------------------
    Electrostatics                -96.08697804 [mEh]     -60.29548903 [kcal/mol]    -252.27632610 [kJ/mol]
      Elst10,r                    -94.18743674 [mEh]     -59.10350887 [kcal/mol]    -247.28908110 [kJ/mol]
      Elst12,r                     -1.89954130 [mEh]      -1.19198016 [kcal/mol]      -4.98724500 [kJ/mol]

    Exchange                       80.82627518 [mEh]      50.71925341 [kcal/mol]     212.20935625 [kJ/mol]
      Exch10                       70.88129264 [mEh]      44.47868265 [kcal/mol]     186.09880820 [kJ/mol]
      Exch10(S^2)                  70.16774533 [mEh]      44.03092495 [kcal/mol]     184.22538998 [kJ/mol]
      Exch11(S^2)                   2.93843165 [mEh]       1.84389370 [kcal/mol]       7.71485123 [kJ/mol]
      Exch12(S^2)                   7.00655089 [mEh]       4.39667706 [kcal/mol]      18.39569682 [kJ/mol]

    Induction                     -45.14255273 [mEh]     -28.32737951 [kcal/mol]    -118.52175587 [kJ/mol]
      Ind20,r                     -63.05830957 [mEh]     -39.56968666 [kcal/mol]    -165.55956897 [kJ/mol]
      Ind22                        -7.91385175 [mEh]      -4.96601695 [kcal/mol]     -20.77781490 [kJ/mol]
      Exch-Ind20,r                 31.25306407 [mEh]      19.61159379 [kcal/mol]      82.05490842 [kJ/mol]
      Exch-Ind22                    3.92227634 [mEh]       2.46126556 [kcal/mol]      10.29793512 [kJ/mol]
      delta HF,r (2)               -9.34573183 [mEh]      -5.86453526 [kcal/mol]     -24.53721553 [kJ/mol]

    Dispersion                    -31.12432087 [mEh]     -19.53080621 [kcal/mol]     -81.71689320 [kJ/mol]
      Disp20                      -34.74927454 [mEh]     -21.80549898 [kcal/mol]     -91.23420774 [kJ/mol]
      Disp21                        2.57895284 [mEh]       1.61831734 [kcal/mol]       6.77103975 [kJ/mol]
      Disp22 (SDQ)                 -0.07633071 [mEh]      -0.04789825 [kcal/mol]      -0.20040626 [kJ/mol]
      Disp22 (T)                   -5.61206344 [mEh]      -3.52162298 [kcal/mol]     -14.73447053 [kJ/mol]
      Est. Disp22 (T)              -6.45853031 [mEh]      -4.05278895 [kcal/mol]     -16.95686898 [kJ/mol]
      Exch-Disp20                   7.58086185 [mEh]       4.75706263 [kcal/mol]      19.90355004 [kJ/mol]

  Total HF                        -64.45712142 [mEh]     -40.44745435 [kcal/mol]    -169.23214898 [kJ/mol]
  Total SAPT0                     -91.62553412 [mEh]     -57.49589070 [kcal/mol]    -240.56280669 [kJ/mol]
  Total SAPT2                     -87.57166829 [mEh]     -54.95205149 [kcal/mol]    -229.91938342 [kJ/mol]
  Total SAPT2+                    -91.52757647 [mEh]     -57.43442135 [kcal/mol]    -240.30561891 [kJ/mol]

  Special recipe for scaled SAPT0 (see Manual):
    Electrostatics sSAPT0         -94.18743674 [mEh]     -59.10350887 [kcal/mol]    -247.28908110 [kJ/mol]
    Exchange sSAPT0                70.88129264 [mEh]      44.47868265 [kcal/mol]     186.09880820 [kJ/mol]
    Induction sSAPT0              -40.18779603 [mEh]     -25.21822274 [kcal/mol]    -105.51304394 [kJ/mol]
    Dispersion sSAPT0             -26.93477978 [mEh]     -16.90182949 [kcal/mol]     -70.71725458 [kJ/mol]
  Total sSAPT0                    -90.42871992 [mEh]     -56.74487845 [kcal/mol]    -237.42057143 [kJ/mol]
  --------------------------------------------------------------------------------------------------------

*** Psi4 exiting successfully. Buy a developer a beer!
