                               Psi4 1.8.2 release

  ==> Input File <==

--------------------------------------------------------------------------
MEMORY 60 GB

molecule dimer {
-1 1
Cl     0.000000     0.000000     0.000000
--
0 1
O      1.279422     1.813072     2.395684
H      0.682919     1.310388     1.792513
H      1.966367     1.174297     2.713761
O      0.654636     0.433879    -3.071352
H      0.416601     0.627639    -2.150429
H      1.079299    -0.421006    -3.057450
O     -2.751681    -1.662134    -0.715478
H     -1.767176    -1.405085    -0.782986
H     -2.615721    -2.522329    -0.314722
O     -0.054526    -2.456372     1.915545
H     -0.644121    -2.325736     2.724853
H     -0.025853    -1.607846     1.466047

units ang
no_reorient
no_com
symmetry c1
}

set {
basis        aug-cc-pVTZ
scf_type     df
}

energy("sapt2+")
--------------------------------------------------------------------------

  //              Dimer HF             //
    Molecular point group: c1
  Charge       = -1
  Multiplicity = 1
  Basis Set: AUG-CC-PVTZ
    Blend: AUG-CC-PVTZ
  Basis Set: (AUG-CC-PVTZ AUX)
    Blend: AUG-CC-PVTZ-JKFIT
  @DF-RHF Final Energy:  -763.85779703762375
    Total Energy =                       -763.8577970376237545
 Dipole X            :         15.4716278          -14.9002581            0.5713698
 Dipole Y            :         37.4309918          -38.0630866           -0.6320948
 Dipole Z            :        -11.7235866           12.4472084            0.7236217
 Magnitude           :                                                    1.1178710
  //            Monomer A HF           //
    Molecular point group: c1
  Multiplicity = 1
  Basis Set: AUG-CC-PVTZ
    Blend: AUG-CC-PVTZ
  Basis Set: (AUG-CC-PVTZ AUX)
    Blend: AUG-CC-PVTZ-JKFIT
  @DF-RHF Final Energy:  -459.57356105038212
    Total Energy =                       -459.5735610503821249
  //            Monomer B HF           //
    Molecular point group: c1

    Geometry (in Angstrom), charge = 0, multiplicity = 1:

       Center              X                  Y                   Z               Mass
    ------------   -----------------  -----------------  -----------------  -----------------
      Gh(CL)          0.000000000000     0.000000000000     0.000000000000    34.968852682000
         O            1.279422000000     1.813072000000     2.395684000000    15.994914619570
         H            0.682919000000     1.310388000000     1.792513000000     1.007825032230
         H            1.966367000000     1.174297000000     2.713761000000     1.007825032230
         O            0.654636000000     0.433879000000    -3.071352000000    15.994914619570
         H            0.416601000000     0.627639000000    -2.150429000000     1.007825032230
         H            1.079299000000    -0.421006000000    -3.057450000000     1.007825032230
         O           -2.751681000000    -1.662134000000    -0.715478000000    15.994914619570
         H           -1.767176000000    -1.405085000000    -0.782986000000     1.007825032230
         H           -2.615721000000    -2.522329000000    -0.314722000000     1.007825032230
         O           -0.054526000000    -2.456372000000     1.915545000000    15.994914619570
         H           -0.644121000000    -2.325736000000     2.724853000000     1.007825032230
         H           -0.025853000000    -1.607846000000     1.466047000000     1.007825032230

  Charge       = 0
  Multiplicity = 1
  Basis Set: AUG-CC-PVTZ
    Blend: AUG-CC-PVTZ
  Basis Set: (AUG-CC-PVTZ AUX)
    Blend: AUG-CC-PVTZ-JKFIT

    Orbital Energies [Eh]
    ---------------------

    Doubly Occupied:

       1A    -20.597531     2A    -20.587006     3A    -20.584416
       4A    -20.578285     5A     -1.365642     6A     -1.360454
       7A     -1.352313     8A     -1.351928     9A     -0.732648
      10A     -0.727964    11A     -0.720215    12A     -0.694784
      13A     -0.602834    14A     -0.601570    15A     -0.591090
      16A     -0.589364    17A     -0.534539    18A     -0.522194
      19A     -0.519833    20A     -0.518212

  @DF-RHF Final Energy:  -304.22364643517750

   => Energetics <=

    Nuclear Repulsion Energy =            101.6735914889229946
    One-Electron Energy =                -621.5288223981007150
    Two-Electron Energy =                 215.6315844740002490
    Total Energy =                       -304.2236464351774998
 Dipole X            :         15.4265391          -14.9002581            0.5262810
 Dipole Y            :         37.1063438          -38.0630866           -0.9567428
 Dipole Z            :        -11.5390838           12.4472084            0.9081245
 Magnitude           :                                                    1.4202178

    SAPT Results
  --------------------------------------------------------------------------------------------------------
    Electrostatics                -93.44152521 [mEh]     -58.63544231 [kcal/mol]    -245.33069064 [kJ/mol]
      Elst10,r                    -93.28436368 [mEh]     -58.53682196 [kcal/mol]    -244.91806310 [kJ/mol]
      Elst12,r                     -0.15716153 [mEh]      -0.09862035 [kcal/mol]      -0.41262755 [kJ/mol]

    Exchange                       69.62901411 [mEh]      43.69286601 [kcal/mol]     182.81095137 [kJ/mol]
      Exch10                       61.21903209 [mEh]      38.41552261 [kcal/mol]     160.73054662 [kJ/mol]
      Exch10(S^2)                  60.69902696 [mEh]      38.08921447 [kcal/mol]     159.36527333 [kJ/mol]
      Exch11(S^2)                   2.92869450 [mEh]       1.83778355 [kcal/mol]       7.68928636 [kJ/mol]
      Exch12(S^2)                   5.48128752 [mEh]       3.43955985 [kcal/mol]      14.39111839 [kJ/mol]

    Induction                     -31.37841870 [mEh]     -19.69025501 [kcal/mol]     -82.38402694 [kJ/mol]
      Ind20,r                     -48.29355178 [mEh]     -30.30466127 [kcal/mol]    -126.79470273 [kJ/mol]
      Ind22                        -6.41505912 [mEh]      -4.02551037 [kcal/mol]     -16.84273539 [kJ/mol]
      Exch-Ind20,r                 26.80670855 [mEh]      16.82146358 [kcal/mol]      70.38100361 [kJ/mol]
      Exch-Ind22                    3.56086090 [mEh]       2.23447395 [kcal/mol]       9.34903900 [kJ/mol]
      delta HF,r (2)               -7.03737725 [mEh]      -4.41602089 [kcal/mol]     -18.47663142 [kJ/mol]

    Dispersion                    -23.88579598 [mEh]     -14.98856326 [kcal/mol]     -62.71214870 [kJ/mol]
      Disp20                      -26.89852480 [mEh]     -16.87907914 [kcal/mol]     -70.62206714 [kJ/mol]
      Disp21                        1.57704701 [mEh]       0.98961194 [kcal/mol]       4.14053636 [kJ/mol]
      Disp22 (SDQ)                  0.01610872 [mEh]       0.01010837 [kcal/mol]       0.04229344 [kJ/mol]
      Disp22 (T)                   -4.28863356 [mEh]      -2.69115819 [kcal/mol]     -11.25980586 [kJ/mol]
      Est. Disp22 (T)              -4.94179166 [mEh]      -3.10102108 [kcal/mol]     -12.97467222 [kJ/mol]
      Exch-Disp20                   6.36136476 [mEh]       3.99181665 [kcal/mol]      16.70176086 [kJ/mol]

  Total HF                        -60.58955206 [mEh]     -38.02051793 [kcal/mol]    -159.07784703 [kJ/mol]
  Total SAPT0                     -81.12671211 [mEh]     -50.90778043 [kcal/mol]    -212.99815330 [kJ/mol]
  Total SAPT2                     -75.72808985 [mEh]     -47.52009381 [kcal/mol]    -198.82407250 [kJ/mol]
  Total SAPT2+                    -79.07672577 [mEh]     -49.62139458 [kcal/mol]    -207.61591492 [kJ/mol]

  Special recipe for scaled SAPT0 (see Manual):
    Electrostatics sSAPT0         -93.28436368 [mEh]     -58.53682196 [kcal/mol]    -244.91806310 [kJ/mol]
    Exchange sSAPT0                61.21903209 [mEh]      38.41552261 [kcal/mol]     160.73054662 [kJ/mol]
    Induction sSAPT0              -27.82934672 [mEh]     -17.46317871 [kcal/mol]     -73.06593974 [kJ/mol]
    Dispersion sSAPT0             -20.37226306 [mEh]     -12.78378807 [kcal/mol]     -53.48736930 [kJ/mol]
  Total sSAPT0                    -80.26694136 [mEh]     -50.36826614 [kcal/mol]    -210.74082552 [kJ/mol]
  --------------------------------------------------------------------------------------------------------

*** Psi4 exiting successfully. Buy a developer a beer!
