                               Psi4 1.8.2 release

  ==> Input File <==

--------------------------------------------------------------------------
MEMORY 60 GB

molecule dimer {
-1 1
Cl     0.000000     0.000000     0.000000
--
0 1
O     -0.939928     3.138189    -0.000936
H     -0.820702     2.238321     0.375766
H     -0.712248     3.077225    -0.943590
O      1.774428     1.345338    -2.573145
H      1.119620     1.302239    -1.824535
H      1.660456     2.173050    -2.996113
O     -2.265274    -2.324267     0.705293
H     -2.834139    -2.738348     0.091603
H     -1.824269    -1.638760     0.205252
O      0.930253    -0.455464     2.995589
H      0.429133     0.276974     3.481595
H      0.852726    -0.389826     2.071742

units ang
no_reorient
no_com
symmetry c1
}

set {
basis        aug-cc-pVTZ
scf_type     df
}

energy("sapt2+")
--------------------------------------------------------------------------

  //              Dimer HF             //
    Molecular point group: c1
  Charge       = -1
  Multiplicity = 1
  Basis Set: AUG-CC-PVTZ
    Blend: AUG-CC-PVTZ
  Basis Set: (AUG-CC-PVTZ AUX)
    Blend: AUG-CC-PVTZ-JKFIT
  @DF-RHF Final Energy:  -763.85623468091728
    Total Energy =                       -763.8562346809172823
 Dipole X            :         10.9514107          -11.5908072           -0.6393965
 Dipole Y            :        -33.6069539           33.8851384            0.2781844
 Dipole Z            :        -19.1942721           17.9072866           -1.2869855
 Magnitude           :                                                    1.4637438
  //            Monomer A HF           //
    Molecular point group: c1
  Multiplicity = 1
  Basis Set: AUG-CC-PVTZ
    Blend: AUG-CC-PVTZ
  Basis Set: (AUG-CC-PVTZ AUX)
    Blend: AUG-CC-PVTZ-JKFIT
  @DF-RHF Final Energy:  -459.57355901389570
    Total Energy =                       -459.5735590138957036
  //            Monomer B HF           //
    Molecular point group: c1

    Geometry (in Angstrom), charge = 0, multiplicity = 1:

       Center              X                  Y                   Z               Mass
    ------------   -----------------  -----------------  -----------------  -----------------
      Gh(CL)          0.000000000000     0.000000000000     0.000000000000    34.968852682000
         O           -0.939928000000     3.138189000000    -0.000936000000    15.994914619570
         H           -0.820702000000     2.238321000000     0.375766000000     1.007825032230
         H           -0.712248000000     3.077225000000    -0.943590000000     1.007825032230
         O            1.774428000000     1.345338000000    -2.573145000000    15.994914619570
         H            1.119620000000     1.302239000000    -1.824535000000     1.007825032230
         H            1.660456000000     2.173050000000    -2.996113000000     1.007825032230
         O           -2.265274000000    -2.324267000000     0.705293000000    15.994914619570
         H           -2.834139000000    -2.738348000000     0.091603000000     1.007825032230
         H           -1.824269000000    -1.638760000000     0.205252000000     1.007825032230
         O            0.930253000000    -0.455464000000     2.995589000000    15.994914619570
         H            0.429133000000     0.276974000000     3.481595000000     1.007825032230
         H            0.852726000000    -0.389826000000     2.071742000000     1.007825032230

  Charge       = 0
  Multiplicity = 1
  Basis Set: AUG-CC-PVTZ
    Blend: AUG-CC-PVTZ
  Basis Set: (AUG-CC-PVTZ AUX)
    Blend: AUG-CC-PVTZ-JKFIT

    Orbital Energies [Eh]
    ---------------------

    Doubly Occupied:

       1A    -20.593102     2A    -20.585827     3A    -20.573452
       4A    -20.569140     5A     -1.368497     6A     -1.366432
       7A     -1.365177     8A     -1.346680     9A     -0.737106
      10A     -0.734112    11A     -0.733802    12A     -0.729136
      13A     -0.601396    14A     -0.594646    15A     -0.593370
      16A     -0.569561    17A     -0.530834    18A     -0.526714
      19A     -0.519632    20A     -0.510171

  @DF-RHF Final Energy:  -304.22697399412448

   => Energetics <=

    Nuclear Repulsion Energy =             99.9580678989356670
    One-Electron Energy =                -618.0725046343968643
    Two-Electron Energy =                 213.8874627413366056
    Total Energy =                       -304.2269739941245348
 Dipole X            :         10.8391519          -11.5908072           -0.7516552
 Dipole Y            :        -33.2822379           33.8851384            0.6029005
 Dipole Z            :        -19.0974236           17.9072866           -1.1901370
 Magnitude           :                                                    1.5313068

    SAPT Results
  --------------------------------------------------------------------------------------------------------
    Electrostatics                -77.88700570 [mEh]     -48.87483396 [kcal/mol]    -204.49230529 [kJ/mol]
      Elst10,r                    -77.62681715 [mEh]     -48.71156318 [kcal/mol]    -203.80918034 [kJ/mol]
      Elst12,r                     -0.26018855 [mEh]      -0.16327078 [kcal/mol]      -0.68312494 [kJ/mol]

    Exchange                       51.08200476 [mEh]      32.05444193 [kcal/mol]     134.11578502 [kJ/mol]
      Exch10                       44.77951745 [mEh]      28.09957143 [kcal/mol]     117.56860687 [kJ/mol]
      Exch10(S^2)                  44.57904504 [mEh]      27.97377309 [kcal/mol]     117.04226662 [kJ/mol]
      Exch11(S^2)                   1.90830829 [mEh]       1.19748153 [kcal/mol]       5.01026271 [kJ/mol]
      Exch12(S^2)                   4.39417902 [mEh]       2.75738897 [kcal/mol]      11.53691544 [kJ/mol]

    Induction                     -25.14501277 [mEh]     -15.77873373 [kcal/mol]     -66.01822194 [kJ/mol]
      Ind20,r                     -38.67382705 [mEh]     -24.26819286 [kcal/mol]    -101.53811893 [kJ/mol]
      Ind22                        -5.01310971 [mEh]      -3.14577384 [kcal/mol]     -13.16191774 [kJ/mol]
      Exch-Ind20,r                 21.00260025 [mEh]      13.17933063 [kcal/mol]      55.14231935 [kJ/mol]
      Exch-Ind22                    2.72247014 [mEh]       1.70837580 [kcal/mol]       7.14784437 [kJ/mol]
      delta HF,r (2)               -5.18314640 [mEh]      -3.25247347 [kcal/mol]     -13.60834899 [kJ/mol]

    Dispersion                    -19.34851465 [mEh]     -12.14137625 [kcal/mol]     -50.79951822 [kJ/mol]
      Disp20                      -21.41497934 [mEh]     -13.43810241 [kcal/mol]     -56.22502050 [kJ/mol]
      Disp21                        1.14680940 [mEh]       0.71963376 [kcal/mol]       3.01094765 [kJ/mol]
      Disp22 (SDQ)                 -0.00770596 [mEh]      -0.00483557 [kcal/mol]      -0.02023201 [kJ/mol]
      Disp22 (T)                   -3.40722950 [mEh]      -2.13806879 [kcal/mol]      -8.94567982 [kJ/mol]
      Est. Disp22 (T)              -3.95026079 [mEh]      -2.47882607 [kcal/mol]     -10.37140827 [kJ/mol]
      Exch-Disp20                   4.87762204 [mEh]       3.06075404 [kcal/mol]      12.80619490 [kJ/mol]

  Total HF                        -55.70167290 [mEh]     -34.95332745 [kcal/mol]    -146.24472204 [kJ/mol]
  Total SAPT0                     -72.23903019 [mEh]     -45.33067582 [kcal/mol]    -189.66354764 [kJ/mol]
  Total SAPT2                     -68.48737101 [mEh]     -42.97647414 [kcal/mol]    -179.81356781 [kJ/mol]
  Total SAPT2+                    -71.29852836 [mEh]     -44.74050201 [kcal/mol]    -187.19426043 [kJ/mol]

  Special recipe for scaled SAPT0 (see Manual):
    Electrostatics sSAPT0         -77.62681715 [mEh]     -48.71156318 [kcal/mol]    -203.80918034 [kJ/mol]
    Exchange sSAPT0                44.77951745 [mEh]      28.09957143 [kcal/mol]     117.56860687 [kJ/mol]
    Induction sSAPT0              -22.56975036 [mEh]     -14.16273217 [kcal/mol]     -59.25687141 [kJ/mol]
    Dispersion sSAPT0             -16.47125678 [mEh]     -10.33586968 [kcal/mol]     -43.24527873 [kJ/mol]
  Total sSAPT0                    -71.88830684 [mEh]     -45.11059360 [kcal/mol]    -188.74272361 [kJ/mol]
  --------------------------------------------------------------------------------------------------------

*** Psi4 exiting successfully. Buy a developer a beer!
