                               Psi4 1.8.2 release

  ==> Input File <==

--------------------------------------------------------------------------
MEMORY 60 GB

molecule dimer {
-1 1
Cl     0.000000     0.000000     0.000000
--
0 1
O      1.179099    -2.702793    -1.094667
H      0.929403    -2.029129    -0.462359
H      1.092980    -3.573515    -0.633220
O      0.081134    -0.715370     3.048829
H      0.119206    -0.799922     2.117339
H      0.247800     0.236344     3.210993
O      3.112573     0.441417     0.245605
H      3.060093     0.433467     1.176247
H      2.153407     0.499648    -0.068952
O      1.136783     3.068748     0.881171
H      0.679395     2.461157     0.268662
H      1.062669     3.915090     0.427493

units ang
no_reorient
no_com
symmetry c1
}

set {
basis        aug-cc-pVTZ
scf_type     df
}

energy("sapt2+")
--------------------------------------------------------------------------

  //              Dimer HF             //
    Molecular point group: c1
  Charge       = -1
  Multiplicity = 1
  Basis Set: AUG-CC-PVTZ
    Blend: AUG-CC-PVTZ
  Basis Set: (AUG-CC-PVTZ AUX)
    Blend: AUG-CC-PVTZ-JKFIT
  @DF-RHF Final Energy:  -763.85496221700657
    Total Energy =                       -763.8549622170065732
 Dipole X            :       -102.6631760          100.9523160           -1.7108600
 Dipole Y            :         -2.8386976            3.5510902            0.7123926
 Dipole Z            :        -58.4353920           57.9838027           -0.4515893
 Magnitude           :                                                    1.9074795
  //            Monomer A HF           //
    Molecular point group: c1
  Multiplicity = 1
  Basis Set: AUG-CC-PVTZ
    Blend: AUG-CC-PVTZ
  Basis Set: (AUG-CC-PVTZ AUX)
    Blend: AUG-CC-PVTZ-JKFIT
  @DF-RHF Final Energy:  -459.57356493366495
    Total Energy =                       -459.5735649336648976
  //            Monomer B HF           //
    Molecular point group: c1

    Geometry (in Angstrom), charge = 0, multiplicity = 1:

       Center              X                  Y                   Z               Mass
    ------------   -----------------  -----------------  -----------------  -----------------
      Gh(CL)          0.000000000000     0.000000000000     0.000000000000    34.968852682000
         O            1.179099000000    -2.702793000000    -1.094667000000    15.994914619570
         H            0.929403000000    -2.029129000000    -0.462359000000     1.007825032230
         H            1.092980000000    -3.573515000000    -0.633220000000     1.007825032230
         O            0.081134000000    -0.715370000000     3.048829000000    15.994914619570
         H            0.119206000000    -0.799922000000     2.117339000000     1.007825032230
         H            0.247800000000     0.236344000000     3.210993000000     1.007825032230
         O            3.112573000000     0.441417000000     0.245605000000    15.994914619570
         H            3.060093000000     0.433467000000     1.176247000000     1.007825032230
         H            2.153407000000     0.499648000000    -0.068952000000     1.007825032230
         O            1.136783000000     3.068748000000     0.881171000000    15.994914619570
         H            0.679395000000     2.461157000000     0.268662000000     1.007825032230
         H            1.062669000000     3.915090000000     0.427493000000     1.007825032230

  Charge       = 0
  Multiplicity = 1
  Basis Set: AUG-CC-PVTZ
    Blend: AUG-CC-PVTZ
  Basis Set: (AUG-CC-PVTZ AUX)
    Blend: AUG-CC-PVTZ-JKFIT

    Orbital Energies [Eh]
    ---------------------

    Doubly Occupied:

       1A    -20.588731     2A    -20.581469     3A    -20.575414
       4A    -20.572066     5A     -1.368158     6A     -1.367712
       7A     -1.350832     8A     -1.349994     9A     -0.731239
      10A     -0.727689    11A     -0.720707    12A     -0.713353
      13A     -0.606144    14A     -0.599035    15A     -0.583894
      16A     -0.582697    17A     -0.530718    18A     -0.524336
      19A     -0.515300    20A     -0.508516

  @DF-RHF Final Energy:  -304.22827769644209

   => Energetics <=

    Nuclear Repulsion Energy =            111.0117926537905646
    One-Electron Energy =                -640.2841310053947836
    Two-Electron Energy =                 225.0440606551621840
    Total Energy =                       -304.2282776964420918
 Dipole X            :       -101.9596954          100.9523160           -1.0073793
 Dipole Y            :         -2.8547645            3.5510902            0.6963257
 Dipole Z            :        -58.0291831           57.9838027           -0.0453804
 Magnitude           :                                                    1.2254558

    SAPT Results
  --------------------------------------------------------------------------------------------------------
    Electrostatics                -86.00374230 [mEh]     -53.96816307 [kcal/mol]    -225.80279430 [kJ/mol]
      Elst10,r                    -85.22352168 [mEh]     -53.47856724 [kcal/mol]    -223.75432534 [kJ/mol]
      Elst12,r                     -0.78022062 [mEh]      -0.48959583 [kcal/mol]      -2.04846897 [kJ/mol]

    Exchange                       68.07881043 [mEh]      42.72009851 [kcal/mol]     178.74089215 [kJ/mol]
      Exch10                       60.12431112 [mEh]      37.72857483 [kcal/mol]     157.85635709 [kJ/mol]
      Exch10(S^2)                  59.68518840 [mEh]      37.45302116 [kcal/mol]     156.70344055 [kJ/mol]
      Exch11(S^2)                   2.50732309 [mEh]       1.57336899 [kcal/mol]       6.58297586 [kJ/mol]
      Exch12(S^2)                   5.44717622 [mEh]       3.41815468 [kcal/mol]      14.30155920 [kJ/mol]

    Induction                     -30.78226014 [mEh]     -19.31615987 [kcal/mol]     -80.81881288 [kJ/mol]
      Ind20,r                     -48.50898290 [mEh]     -30.43984633 [kcal/mol]    -127.36031706 [kJ/mol]
      Ind22                        -6.54874380 [mEh]      -4.10939878 [kcal/mol]     -17.19372449 [kJ/mol]
      Exch-Ind20,r                 28.05068154 [mEh]      17.60206842 [kcal/mol]      73.64705425 [kJ/mol]
      Exch-Ind22                    3.78686000 [mEh]       2.37629053 [kcal/mol]       9.94239956 [kJ/mol]
      delta HF,r (2)               -7.56207498 [mEh]      -4.74527369 [kcal/mol]     -19.85422514 [kJ/mol]

    Dispersion                    -22.95149178 [mEh]     -14.40227853 [kcal/mol]     -60.25913338 [kJ/mol]
      Disp20                      -26.15222841 [mEh]     -16.41077109 [kcal/mol]     -68.66266623 [kJ/mol]
      Disp21                        1.72456457 [mEh]       1.08218060 [kcal/mol]       4.52784365 [kJ/mol]
      Disp22 (SDQ)                 -0.01799528 [mEh]      -0.01129221 [kcal/mol]      -0.04724660 [kJ/mol]
      Disp22 (T)                   -4.15433644 [mEh]      -2.60688547 [kcal/mol]     -10.90720882 [kJ/mol]
      Est. Disp22 (T)              -4.76704023 [mEh]      -2.99136291 [kcal/mol]     -12.51586240 [kJ/mol]
      Exch-Disp20                   6.26120757 [mEh]       3.92896707 [kcal/mol]      16.43879821 [kJ/mol]

  Total HF                        -53.11958690 [mEh]     -33.33304402 [kcal/mol]    -139.46545619 [kJ/mol]
  Total SAPT0                     -73.01060774 [mEh]     -45.81484804 [kcal/mol]    -191.68932421 [kJ/mol]
  Total SAPT2                     -68.59821286 [mEh]     -43.04602845 [kcal/mol]    -180.10458305 [kJ/mol]
  Total SAPT2+                    -71.65868380 [mEh]     -44.96650297 [kcal/mol]    -188.13984841 [kJ/mol]

  Special recipe for scaled SAPT0 (see Manual):
    Electrostatics sSAPT0         -85.22352168 [mEh]     -53.47856724 [kcal/mol]    -223.75432534 [kJ/mol]
    Exchange sSAPT0                60.12431112 [mEh]      37.72857483 [kcal/mol]     157.85635709 [kJ/mol]
    Induction sSAPT0              -27.39667693 [mEh]     -17.19167432 [kcal/mol]     -71.92996536 [kJ/mol]
    Dispersion sSAPT0             -19.75180456 [mEh]     -12.39444449 [kcal/mol]     -51.85835574 [kJ/mol]
  Total sSAPT0                    -72.24769205 [mEh]     -45.33611122 [kcal/mol]    -189.68628935 [kJ/mol]
  --------------------------------------------------------------------------------------------------------

*** Psi4 exiting successfully. Buy a developer a beer!
