                               Psi4 1.8.2 release

  ==> Input File <==

--------------------------------------------------------------------------
MEMORY 60 GB

molecule dimer {
-1 1
Cl     0.000000     0.000000     0.000000
--
0 1
O      1.422099    -1.987304     2.148825
H      1.064340    -1.506450     1.399804
H      2.368545    -1.867599     2.083815
O     -2.865467    -0.850270     1.171661
H     -2.084324    -0.528310     0.724260
H     -3.378232    -0.065480     1.313502
O     -2.426888     2.264567     1.019413
H     -1.479134     2.101066     1.074612
H     -2.670735     1.963972     0.116288
O      0.376785     2.007354     2.598138
H      1.072877     2.112276     3.311169
H      0.426693     1.248381     2.049427

units ang
no_reorient
no_com
symmetry c1
}

set {
basis        aug-cc-pVTZ
scf_type     df
}

energy("sapt2+")
--------------------------------------------------------------------------

  //              Dimer HF             //
    Molecular point group: c1
  Charge       = -1
  Multiplicity = 1
  Basis Set: AUG-CC-PVTZ
    Blend: AUG-CC-PVTZ
  Basis Set: (AUG-CC-PVTZ AUX)
    Blend: AUG-CC-PVTZ-JKFIT
  @DF-RHF Final Energy:  -763.85986411977080
    Total Energy =                       -763.8598641197708048
 Dipole X            :         63.4753306          -61.6574889            1.8178417
 Dipole Y            :        -27.8446748           28.2185848            0.3739101
 Dipole Z            :       -129.4471005          127.7023493           -1.7447512
 Magnitude           :                                                    2.5472561
  //            Monomer A HF           //
    Molecular point group: c1
  Multiplicity = 1
  Basis Set: AUG-CC-PVTZ
    Blend: AUG-CC-PVTZ
  Basis Set: (AUG-CC-PVTZ AUX)
    Blend: AUG-CC-PVTZ-JKFIT
  @DF-RHF Final Energy:  -459.57355844399063
    Total Energy =                       -459.5735584439906347
  //            Monomer B HF           //
    Molecular point group: c1

    Geometry (in Angstrom), charge = 0, multiplicity = 1:

       Center              X                  Y                   Z               Mass
    ------------   -----------------  -----------------  -----------------  -----------------
      Gh(CL)          0.000000000000     0.000000000000     0.000000000000    34.968852682000
         O            1.422099000000    -1.987304000000     2.148825000000    15.994914619570
         H            1.064340000000    -1.506450000000     1.399804000000     1.007825032230
         H            2.368545000000    -1.867599000000     2.083815000000     1.007825032230
         O           -2.865467000000    -0.850270000000     1.171661000000    15.994914619570
         H           -2.084324000000    -0.528310000000     0.724260000000     1.007825032230
         H           -3.378232000000    -0.065480000000     1.313502000000     1.007825032230
         O           -2.426888000000     2.264567000000     1.019413000000    15.994914619570
         H           -1.479134000000     2.101066000000     1.074612000000     1.007825032230
         H           -2.670735000000     1.963972000000     0.116288000000     1.007825032230
         O            0.376785000000     2.007354000000     2.598138000000    15.994914619570
         H            1.072877000000     2.112276000000     3.311169000000     1.007825032230
         H            0.426693000000     1.248381000000     2.049427000000     1.007825032230

  Charge       = 0
  Multiplicity = 1
  Basis Set: AUG-CC-PVTZ
    Blend: AUG-CC-PVTZ
  Basis Set: (AUG-CC-PVTZ AUX)
    Blend: AUG-CC-PVTZ-JKFIT

    Orbital Energies [Eh]
    ---------------------

    Doubly Occupied:

       1A    -20.580909     2A    -20.580741     3A    -20.577761
       4A    -20.559949     5A     -1.366740     6A     -1.359689
       7A     -1.355681     8A     -1.349456     9A     -0.754988
      10A     -0.731329    11A     -0.717364    12A     -0.711956
      13A     -0.597011    14A     -0.592518    15A     -0.584663
      16A     -0.576395    17A     -0.524673    18A     -0.523007
      19A     -0.515656    20A     -0.504316

  @DF-RHF Final Energy:  -304.23075696528343

   => Energetics <=

    Nuclear Repulsion Energy =            115.9186134947993168
    One-Electron Energy =                -650.1691345682686460
    Two-Electron Energy =                 230.0197641081859388
    Total Energy =                       -304.2307569652834331
 Dipole X            :         63.2423312          -61.6574889            1.5848422
 Dipole Y            :        -27.7774492           28.2185848            0.4411356
 Dipole Z            :       -128.7217659          127.7023493           -1.0194166
 Magnitude           :                                                    1.9353387

    SAPT Results
  --------------------------------------------------------------------------------------------------------
    Electrostatics                -75.78324545 [mEh]     -47.55470448 [kcal/mol]    -198.96888353 [kJ/mol]
      Elst10,r                    -75.97623857 [mEh]     -47.67580948 [kcal/mol]    -199.47558688 [kJ/mol]
      Elst12,r                      0.19299312 [mEh]       0.12110501 [kcal/mol]       0.50670336 [kJ/mol]

    Exchange                       49.20364643 [mEh]      30.87575428 [kcal/mol]     129.18415591 [kJ/mol]
      Exch10                       43.15397270 [mEh]      27.07952670 [kcal/mol]     113.30073970 [kJ/mol]
      Exch10(S^2)                  42.90680057 [mEh]      26.92442385 [kcal/mol]     112.65178938 [kJ/mol]
      Exch11(S^2)                   1.80758893 [mEh]       1.13427918 [kcal/mol]       4.74582409 [kJ/mol]
      Exch12(S^2)                   4.24208480 [mEh]       2.66194840 [kcal/mol]      11.13759212 [kJ/mol]

    Induction                     -24.98175249 [mEh]     -15.67628636 [kcal/mol]     -65.58958213 [kJ/mol]
      Ind20,r                     -37.29194548 [mEh]     -23.40104908 [kcal/mol]     -97.90998936 [kJ/mol]
      Ind22                        -5.01591147 [mEh]      -3.14753196 [kcal/mol]     -13.16927374 [kJ/mol]
      Exch-Ind20,r                 20.52434129 [mEh]      12.87921860 [kcal/mol]      53.88665063 [kJ/mol]
      Exch-Ind22                    2.76060360 [mEh]       1.73230491 [kcal/mol]       7.24796375 [kJ/mol]
      delta HF,r (2)               -5.95884044 [mEh]      -3.73922883 [kcal/mol]     -15.64493341 [kJ/mol]

    Dispersion                    -18.66578984 [mEh]     -11.71295996 [kcal/mol]     -49.00702447 [kJ/mol]
      Disp20                      -20.85371577 [mEh]     -13.08590421 [kcal/mol]     -54.75142322 [kJ/mol]
      Disp21                        1.32303667 [mEh]       0.83021805 [kcal/mol]       3.47363231 [kJ/mol]
      Disp22 (SDQ)                 -0.06138907 [mEh]      -0.03852222 [kcal/mol]      -0.16117697 [kJ/mol]
      Disp22 (T)                   -3.33168043 [mEh]      -2.09066103 [kcal/mol]      -8.74732575 [kJ/mol]
      Est. Disp22 (T)              -3.85646101 [mEh]      -2.41996582 [kcal/mol]     -10.12513699 [kJ/mol]
      Exch-Disp20                   4.78273934 [mEh]       3.00121425 [kcal/mol]      12.55708040 [kJ/mol]

  Total HF                        -55.54871050 [mEh]     -34.85734209 [kcal/mol]    -145.84311932 [kJ/mol]
  Total SAPT0                     -71.61968693 [mEh]     -44.94203206 [kcal/mol]    -188.03746213 [kJ/mol]
  Total SAPT2                     -67.63232795 [mEh]     -42.43992652 [kcal/mol]    -177.56865257 [kJ/mol]
  Total SAPT2+                    -70.22714135 [mEh]     -44.06819652 [kcal/mol]    -184.38133422 [kJ/mol]

  Special recipe for scaled SAPT0 (see Manual):
    Electrostatics sSAPT0         -75.97623857 [mEh]     -47.67580948 [kcal/mol]    -199.47558688 [kJ/mol]
    Exchange sSAPT0                43.15397270 [mEh]      27.07952670 [kcal/mol]     113.30073970 [kJ/mol]
    Induction sSAPT0              -22.36969521 [mEh]     -14.03719567 [kcal/mol]     -58.73162667 [kJ/mol]
    Dispersion sSAPT0             -15.98784395 [mEh]     -10.03252355 [kcal/mol]     -41.97607851 [kJ/mol]
  Total sSAPT0                    -71.17980503 [mEh]     -44.66600200 [kcal/mol]    -186.88255237 [kJ/mol]
  --------------------------------------------------------------------------------------------------------

*** Psi4 exiting successfully. Buy a developer a beer!
