                               Psi4 1.8.2 release

  ==> Input File <==

--------------------------------------------------------------------------
MEMORY 60 GB

molecule dimer {
-1 1
Cl     0.000000     0.000000     0.000000
--
0 1
O      2.463279    -1.637242     1.524697
H      2.153801    -1.174206     0.704797
H      3.424703    -1.765351     1.439217
O     -3.116776     0.013193     0.922660
H     -3.430576    -0.157029     0.005481
H     -2.173003    -0.131358     0.884899
O     -0.255395    -0.965558     3.259253
H      0.115940    -0.895008     2.380767
H     -0.515949    -0.061156     3.400927
O      0.593896     2.305977    -1.825798
H      1.456929     2.664655    -1.817872
H      0.413740     1.886953    -0.968415
O     -0.301908    -2.719564    -1.155955
H     -0.223765    -1.800429    -0.769036
H      0.140094    -2.598246    -2.035538
O     -2.739786     0.110883    -1.903292
H     -3.291889     0.616513    -2.564165
H     -1.849346     0.283247    -1.934967

units ang
no_reorient
no_com
symmetry c1
}

set {
basis        aug-cc-pVTZ
scf_type     df
}

energy("sapt2+")
--------------------------------------------------------------------------

  //              Dimer HF             //
    Molecular point group: c1
  Charge       = -1
  Multiplicity = 1
  Basis Set: AUG-CC-PVTZ
    Blend: AUG-CC-PVTZ
  Basis Set: (AUG-CC-PVTZ AUX)
    Blend: AUG-CC-PVTZ-JKFIT
  @DF-RHF Final Energy:  -915.97554271695390
    Total Energy =                       -915.9755427169538962
 Dipole X            :         59.9920862          -57.8876799            2.1044063
 Dipole Y            :         51.6182001          -49.6429220            1.9752780
 Dipole Z            :        -11.9095080           10.0129312           -1.8965769
 Magnitude           :                                                    3.4535855
  //            Monomer A HF           //
    Molecular point group: c1
  Multiplicity = 1
  Basis Set: AUG-CC-PVTZ
    Blend: AUG-CC-PVTZ
  Basis Set: (AUG-CC-PVTZ AUX)
    Blend: AUG-CC-PVTZ-JKFIT
  @DF-RHF Final Energy:  -459.57358978635637
    Total Energy =                       -459.5735897863563650
  //            Monomer B HF           //
    Molecular point group: c1

    Geometry (in Angstrom), charge = 0, multiplicity = 1:

       Center              X                  Y                   Z               Mass
    ------------   -----------------  -----------------  -----------------  -----------------
      Gh(CL)          0.000000000000     0.000000000000     0.000000000000    34.968852682000
         O            2.463279000000    -1.637242000000     1.524697000000    15.994914619570
         H            2.153801000000    -1.174206000000     0.704797000000     1.007825032230
         H            3.424703000000    -1.765351000000     1.439217000000     1.007825032230
         O           -3.116776000000     0.013193000000     0.922660000000    15.994914619570
         H           -3.430576000000    -0.157029000000     0.005481000000     1.007825032230
         H           -2.173003000000    -0.131358000000     0.884899000000     1.007825032230
         O           -0.255395000000    -0.965558000000     3.259253000000    15.994914619570
         H            0.115940000000    -0.895008000000     2.380767000000     1.007825032230
         H           -0.515949000000    -0.061156000000     3.400927000000     1.007825032230
         O            0.593896000000     2.305977000000    -1.825798000000    15.994914619570
         H            1.456929000000     2.664655000000    -1.817872000000     1.007825032230
         H            0.413740000000     1.886953000000    -0.968415000000     1.007825032230
         O           -0.301908000000    -2.719564000000    -1.155955000000    15.994914619570
         H           -0.223765000000    -1.800429000000    -0.769036000000     1.007825032230
         H            0.140094000000    -2.598246000000    -2.035538000000     1.007825032230
         O           -2.739786000000     0.110883000000    -1.903292000000    15.994914619570
         H           -3.291889000000     0.616513000000    -2.564165000000     1.007825032230
         H           -1.849346000000     0.283247000000    -1.934967000000     1.007825032230

  Charge       = 0
  Multiplicity = 1
  Basis Set: AUG-CC-PVTZ
    Blend: AUG-CC-PVTZ
  Basis Set: (AUG-CC-PVTZ AUX)
    Blend: AUG-CC-PVTZ-JKFIT

    Orbital Energies [Eh]
    ---------------------

    Doubly Occupied:

       1A    -20.596216     2A    -20.588477     3A    -20.587315
       4A    -20.584703     5A    -20.557631     6A    -20.542319
       7A     -1.384853     8A     -1.377641     9A     -1.356877
      10A     -1.349222    11A     -1.347644    12A     -1.323089
      13A     -0.766453    14A     -0.761017    15A     -0.728717
      16A     -0.703844    17A     -0.698837    18A     -0.691503
      19A     -0.609003    20A     -0.603099    21A     -0.595009
      22A     -0.591543    23A     -0.582686    24A     -0.555900
      25A     -0.541426    26A     -0.529759    27A     -0.525381
      28A     -0.518995    29A     -0.500134    30A     -0.483457

  @DF-RHF Final Energy:  -456.33879137924708

   => Energetics <=

    Nuclear Repulsion Energy =            233.4249512119953636
    One-Electron Energy =               -1094.3619795416570923
    Two-Electron Energy =                 404.5982369504146732
    Total Energy =                       -456.3387913792470840
 Dipole X            :         59.8550738          -57.8876799            1.9673938
 Dipole Y            :         51.3023715          -49.6429220            1.6594495
 Dipole Z            :        -12.0816328           10.0129312           -2.0687016
 Magnitude           :                                                    3.3021111

    SAPT Results
  --------------------------------------------------------------------------------------------------------
    Electrostatics               -119.30848618 [mEh]     -74.86720538 [kcal/mol]    -313.24438730 [kJ/mol]
      Elst10,r                   -117.60235602 [mEh]     -73.79659254 [kcal/mol]    -308.76494319 [kJ/mol]
      Elst12,r                     -1.70613016 [mEh]      -1.07061284 [kcal/mol]      -4.47944411 [kJ/mol]

    Exchange                      104.77461550 [mEh]      65.74706383 [kcal/mol]     275.08571508 [kJ/mol]
      Exch10                       92.38166174 [mEh]      57.97036794 [kcal/mol]     242.54801947 [kJ/mol]
      Exch10(S^2)                  91.63230489 [mEh]      57.50013942 [kcal/mol]     240.58058334 [kJ/mol]
      Exch11(S^2)                   4.20365870 [mEh]       2.63783566 [kcal/mol]      11.03670440 [kJ/mol]
      Exch12(S^2)                   8.18929506 [mEh]       5.13886023 [kcal/mol]      21.50099122 [kJ/mol]

    Induction                     -42.11179474 [mEh]     -26.42555016 [kcal/mol]    -110.56450186 [kJ/mol]
      Ind20,r                     -70.64063914 [mEh]     -44.32767029 [kcal/mol]    -185.46697251 [kJ/mol]
      Ind22                       -10.10611308 [mEh]      -6.34168170 [kcal/mol]     -26.53359625 [kJ/mol]
      Exch-Ind20,r                 41.48623522 [mEh]      26.03300563 [kcal/mol]     108.92209556 [kJ/mol]
      Exch-Ind22                    5.93517541 [mEh]       3.72437880 [kcal/mol]      15.58280090 [kJ/mol]
      delta HF,r (2)               -8.78645315 [mEh]      -5.51358259 [kcal/mol]     -23.06882956 [kJ/mol]

    Dispersion                    -34.46409030 [mEh]     -21.62654317 [kcal/mol]     -90.48545662 [kJ/mol]
      Disp20                      -39.63809697 [mEh]     -24.87328137 [kcal/mol]    -104.06980925 [kJ/mol]
      Disp21                        2.85411192 [mEh]       1.79098227 [kcal/mol]       7.49346982 [kJ/mol]
      Disp22 (SDQ)                 -0.03089331 [mEh]      -0.01938584 [kcal/mol]      -0.08111036 [kJ/mol]
      Disp22 (T)                   -6.30838199 [mEh]      -3.95856947 [kcal/mol]     -16.56265464 [kJ/mol]
      Est. Disp22 (T)              -7.22350811 [mEh]      -4.53281977 [kcal/mol]     -18.96531792 [kJ/mol]
      Exch-Disp20                   9.57429616 [mEh]       6.00796155 [kcal/mol]      25.13731111 [kJ/mol]

  Total HF                        -63.16155135 [mEh]     -39.63447185 [kcal/mol]    -165.83063022 [kJ/mol]
  Total SAPT0                     -93.22535216 [mEh]     -58.49979168 [kcal/mol]    -244.76312837 [kJ/mol]
  Total SAPT2                     -86.70946623 [mEh]     -54.41101152 [kcal/mol]    -227.65567222 [kJ/mol]
  Total SAPT2+                    -91.10975572 [mEh]     -57.17223487 [kcal/mol]    -239.20863069 [kJ/mol]

  Special recipe for scaled SAPT0 (see Manual):
    Electrostatics sSAPT0        -117.60235602 [mEh]     -73.79659254 [kcal/mol]    -308.76494319 [kJ/mol]
    Exchange sSAPT0                92.38166174 [mEh]      57.97036794 [kcal/mol]     242.54801947 [kJ/mol]
    Induction sSAPT0              -36.91470409 [mEh]     -23.16432654 [kcal/mol]     -96.91954223 [kJ/mol]
    Dispersion sSAPT0             -29.82698268 [mEh]     -18.71671421 [kcal/mol]     -78.31073224 [kJ/mol]
  Total sSAPT0                    -91.96238105 [mEh]     -57.70726534 [kcal/mol]    -241.44719819 [kJ/mol]
  --------------------------------------------------------------------------------------------------------

*** Psi4 exiting successfully. Buy a developer a beer!
