                               Psi4 1.8.2 release

  ==> Input File <==

--------------------------------------------------------------------------
MEMORY 60 GB

molecule dimer {
-1 1
Cl     0.000000     0.000000     0.000000
--
0 1
O      1.742297    -2.654047     1.118768
H      1.260670    -2.008429     0.613643
H      2.683510    -2.425408     0.973453
O     -0.878321    -2.549464    -2.008334
H     -0.081928    -2.939664    -2.323798
H     -0.714875    -1.691467    -1.528138
O      1.749563    -0.102248     3.018640
H      2.471494    -0.737311     3.082986
H      1.443373    -0.105267     2.081928
O     -0.979852     2.756798     1.607170
H     -1.662922     2.629789     2.250272
H     -0.638372     1.968890     1.221055
O      1.578888     0.765967    -2.773134
H      1.498143     0.657890    -1.802469
H      1.511288     1.750790    -2.889389
O     -1.085832     2.723152    -1.612034
H     -1.583392     2.750532    -2.453881
H     -0.723114     1.794176    -1.507763

units ang
no_reorient
no_com
symmetry c1
}

set {
basis        aug-cc-pVTZ
scf_type     df
}

energy("sapt2+")
--------------------------------------------------------------------------

  //              Dimer HF             //
    Molecular point group: c1
  Charge       = -1
  Multiplicity = 1
  Basis Set: AUG-CC-PVTZ
    Blend: AUG-CC-PVTZ
  Basis Set: (AUG-CC-PVTZ AUX)
    Blend: AUG-CC-PVTZ-JKFIT
  @DF-RHF Final Energy:  -915.98857446896409
    Total Energy =                       -915.9885744689640887
 Dipole X            :        -42.0164733           42.4769218            0.4604485
 Dipole Y            :        -17.5572056           17.3208234           -0.2363823
 Dipole Z            :         13.6350377          -14.1228550           -0.4878173
 Magnitude           :                                                    0.7112349
  //            Monomer A HF           //
    Molecular point group: c1
  Multiplicity = 1
  Basis Set: AUG-CC-PVTZ
    Blend: AUG-CC-PVTZ
  Basis Set: (AUG-CC-PVTZ AUX)
    Blend: AUG-CC-PVTZ-JKFIT
  @DF-RHF Final Energy:  -459.57358411239892
    Total Energy =                       -459.5735841123988621
  //            Monomer B HF           //
    Molecular point group: c1

    Geometry (in Angstrom), charge = 0, multiplicity = 1:

       Center              X                  Y                   Z               Mass
    ------------   -----------------  -----------------  -----------------  -----------------
      Gh(CL)          0.000000000000     0.000000000000     0.000000000000    34.968852682000
         O            1.742297000000    -2.654047000000     1.118768000000    15.994914619570
         H            1.260670000000    -2.008429000000     0.613643000000     1.007825032230
         H            2.683510000000    -2.425408000000     0.973453000000     1.007825032230
         O           -0.878321000000    -2.549464000000    -2.008334000000    15.994914619570
         H           -0.081928000000    -2.939664000000    -2.323798000000     1.007825032230
         H           -0.714875000000    -1.691467000000    -1.528138000000     1.007825032230
         O            1.749563000000    -0.102248000000     3.018640000000    15.994914619570
         H            2.471494000000    -0.737311000000     3.082986000000     1.007825032230
         H            1.443373000000    -0.105267000000     2.081928000000     1.007825032230
         O           -0.979852000000     2.756798000000     1.607170000000    15.994914619570
         H           -1.662922000000     2.629789000000     2.250272000000     1.007825032230
         H           -0.638372000000     1.968890000000     1.221055000000     1.007825032230
         O            1.578888000000     0.765967000000    -2.773134000000    15.994914619570
         H            1.498143000000     0.657890000000    -1.802469000000     1.007825032230
         H            1.511288000000     1.750790000000    -2.889389000000     1.007825032230
         O           -1.085832000000     2.723152000000    -1.612034000000    15.994914619570
         H           -1.583392000000     2.750532000000    -2.453881000000     1.007825032230
         H           -0.723114000000     1.794176000000    -1.507763000000     1.007825032230

  Charge       = 0
  Multiplicity = 1
  Basis Set: AUG-CC-PVTZ
    Blend: AUG-CC-PVTZ
  Basis Set: (AUG-CC-PVTZ AUX)
    Blend: AUG-CC-PVTZ-JKFIT

    Orbital Energies [Eh]
    ---------------------

    Doubly Occupied:

       1A    -20.600670     2A    -20.596717     3A    -20.584474
       4A    -20.578832     5A    -20.576860     6A    -20.557162
       7A     -1.379001     8A     -1.368237     9A     -1.356097
      10A     -1.351163    11A     -1.350807    12A     -1.348144
      13A     -0.744059    14A     -0.742916    15A     -0.738819
      16A     -0.726652    17A     -0.721487    18A     -0.719154
      19A     -0.611304    20A     -0.610646    21A     -0.587545
      22A     -0.585778    23A     -0.580101    24A     -0.562615
      25A     -0.537409    26A     -0.537074    27A     -0.520470
      28A     -0.519649    29A     -0.513778    30A     -0.503165

  @DF-RHF Final Energy:  -456.33349698804005

   => Energetics <=

    Nuclear Repulsion Energy =            224.5454326445957065
    One-Electron Energy =               -1076.3362830223022684
    Two-Electron Energy =                 395.4573533896664799
    Total Energy =                       -456.3334969880400536
 Dipole X            :        -41.7080748           42.4769218            0.7688470
 Dipole Y            :        -17.5060196           17.3208234           -0.1851962
 Dipole Z            :         13.4393117          -14.1228550           -0.6835433
 Magnitude           :                                                    1.0453013

    SAPT Results
  --------------------------------------------------------------------------------------------------------
    Electrostatics               -106.15244738 [mEh]     -66.61166639 [kcal/mol]    -278.70321219 [kJ/mol]
      Elst10,r                   -106.22192288 [mEh]     -66.65526293 [kcal/mol]    -278.88562009 [kJ/mol]
      Elst12,r                      0.06947550 [mEh]       0.04359654 [kcal/mol]       0.18240790 [kJ/mol]

    Exchange                       64.15668357 [mEh]      40.25892675 [kcal/mol]     168.44334951 [kJ/mol]
      Exch10                       55.47305969 [mEh]      34.80987049 [kcal/mol]     145.64449814 [kJ/mol]
      Exch10(S^2)                  55.19358005 [mEh]      34.63449438 [kcal/mol]     144.91072447 [kJ/mol]
      Exch11(S^2)                   2.91289610 [mEh]       1.82786990 [kcal/mol]       7.64780765 [kJ/mol]
      Exch12(S^2)                   5.77072779 [mEh]       3.62118636 [kcal/mol]      15.15104372 [kJ/mol]

    Induction                     -34.08117072 [mEh]     -21.38625750 [kcal/mol]     -89.48010139 [kJ/mol]
      Ind20,r                     -47.76440324 [mEh]     -29.97261554 [kcal/mol]    -125.40542342 [kJ/mol]
      Ind22                        -6.46421868 [mEh]      -4.05635847 [kcal/mol]     -16.97180382 [kJ/mol]
      Exch-Ind20,r                 23.10963231 [mEh]      14.50151321 [kcal/mol]      60.67433126 [kJ/mol]
      Exch-Ind22                    3.12755330 [mEh]       1.96256933 [kcal/mol]       8.21139006 [kJ/mol]
      delta HF,r (2)               -6.08973440 [mEh]      -3.82136603 [kcal/mol]     -15.98859547 [kJ/mol]

    Dispersion                    -26.80465647 [mEh]     -16.82017588 [kcal/mol]     -70.37561587 [kJ/mol]
      Disp20                      -29.35130155 [mEh]     -18.41821979 [kcal/mol]     -77.06183161 [kJ/mol]
      Disp21                        1.78259949 [mEh]       1.11859807 [kcal/mol]       4.68021432 [kJ/mol]
      Disp22 (SDQ)                 -0.05627255 [mEh]      -0.03531156 [kcal/mol]      -0.14774357 [kJ/mol]
      Disp22 (T)                   -4.80138300 [mEh]      -3.01291332 [kcal/mol]     -12.60602933 [kJ/mol]
      Est. Disp22 (T)              -5.54233664 [mEh]      -3.47786875 [kcal/mol]     -14.55140283 [kJ/mol]
      Exch-Disp20                   6.36265478 [mEh]       3.99262615 [kcal/mol]      16.70514783 [kJ/mol]

  Total HF                        -81.49336853 [mEh]     -51.13786080 [kcal/mol]    -213.96080959 [kJ/mol]
  Total SAPT0                    -104.48201530 [mEh]     -65.56345444 [kcal/mol]    -274.31749337 [kJ/mol]
  Total SAPT2                     -99.06558129 [mEh]     -62.16459079 [kcal/mol]    -260.09664785 [kJ/mol]
  Total SAPT2+                   -102.88159099 [mEh]     -64.55917302 [kcal/mol]    -270.11557994 [kJ/mol]

  Special recipe for scaled SAPT0 (see Manual):
    Electrostatics sSAPT0        -106.22192288 [mEh]     -66.65526293 [kcal/mol]    -278.88562009 [kJ/mol]
    Exchange sSAPT0                55.47305969 [mEh]      34.80987049 [kcal/mol]     145.64449814 [kJ/mol]
    Induction sSAPT0              -30.39166913 [mEh]     -19.07106031 [kcal/mol]     -79.79331632 [kJ/mol]
    Dispersion sSAPT0             -22.89150222 [mEh]     -14.36463451 [kcal/mol]     -60.10163079 [kJ/mol]
  Total sSAPT0                   -104.03203454 [mEh]     -65.28108725 [kcal/mol]    -273.13606906 [kJ/mol]
  --------------------------------------------------------------------------------------------------------

*** Psi4 exiting successfully. Buy a developer a beer!
