                               Psi4 1.8.2 release

  ==> Input File <==

--------------------------------------------------------------------------
MEMORY 60 GB

molecule dimer {
-1 1
Cl     0.000000     0.000000     0.000000
--
0 1
O      1.643517    -2.671033    -0.571244
H      1.442644    -3.447881     0.013578
H      0.828471    -2.107925    -0.378806
O     -2.118199    -2.087345     0.884562
H     -1.644371    -1.233785     0.607522
H     -3.051365    -1.880592     0.681310
O      0.599442     1.213303     2.922861
H      0.626392     1.960370     2.295878
H      0.540948     0.461657     2.407060
O     -2.500190     1.554417     0.736574
H     -1.721962     1.048901     0.477950
H     -3.117665     1.113809     0.151889
O      0.419712     0.008157    -3.275042
H     -0.472377     0.059341    -3.781707
H      0.155255    -0.226504    -2.409947

units ang
no_reorient
no_com
symmetry c1
}

set {
basis        aug-cc-pVTZ
scf_type     df
}

energy("sapt2+")
--------------------------------------------------------------------------

  //              Dimer HF             //
    Molecular point group: c1
  Charge       = -1
  Multiplicity = 1
  Basis Set: AUG-CC-PVTZ
    Blend: AUG-CC-PVTZ
  Basis Set: (AUG-CC-PVTZ AUX)
    Blend: AUG-CC-PVTZ-JKFIT
  @DF-RHF Final Energy:  -839.91014783902642
    Total Energy =                       -839.9101478390264219
 Dipole X            :         40.6825412          -41.6869312           -1.0043901
 Dipole Y            :         38.1259557          -38.0073378            0.1186179
 Dipole Z            :        -11.5741974           10.6701779           -0.9040195
 Magnitude           :                                                    1.3565106
  //            Monomer A HF           //
    Molecular point group: c1
  Multiplicity = 1
  Basis Set: AUG-CC-PVTZ
    Blend: AUG-CC-PVTZ
  Basis Set: (AUG-CC-PVTZ AUX)
    Blend: AUG-CC-PVTZ-JKFIT
  @DF-RHF Final Energy:  -459.57358246988292
    Total Energy =                       -459.5735824698829219
  //            Monomer B HF           //
    Molecular point group: c1

    Geometry (in Angstrom), charge = 0, multiplicity = 1:

       Center              X                  Y                   Z               Mass
    ------------   -----------------  -----------------  -----------------  -----------------
      Gh(CL)          0.000000000000     0.000000000000     0.000000000000    34.968852682000
         O            1.643517000000    -2.671033000000    -0.571244000000    15.994914619570
         H            1.442644000000    -3.447881000000     0.013578000000     1.007825032230
         H            0.828471000000    -2.107925000000    -0.378806000000     1.007825032230
         O           -2.118199000000    -2.087345000000     0.884562000000    15.994914619570
         H           -1.644371000000    -1.233785000000     0.607522000000     1.007825032230
         H           -3.051365000000    -1.880592000000     0.681310000000     1.007825032230
         O            0.599442000000     1.213303000000     2.922861000000    15.994914619570
         H            0.626392000000     1.960370000000     2.295878000000     1.007825032230
         H            0.540948000000     0.461657000000     2.407060000000     1.007825032230
         O           -2.500190000000     1.554417000000     0.736574000000    15.994914619570
         H           -1.721962000000     1.048901000000     0.477950000000     1.007825032230
         H           -3.117665000000     1.113809000000     0.151889000000     1.007825032230
         O            0.419712000000     0.008157000000    -3.275042000000    15.994914619570
         H           -0.472377000000     0.059341000000    -3.781707000000     1.007825032230
         H            0.155255000000    -0.226504000000    -2.409947000000     1.007825032230

  Charge       = 0
  Multiplicity = 1
  Basis Set: AUG-CC-PVTZ
    Blend: AUG-CC-PVTZ
  Basis Set: (AUG-CC-PVTZ AUX)
    Blend: AUG-CC-PVTZ-JKFIT

    Orbital Energies [Eh]
    ---------------------

    Doubly Occupied:

       1A    -20.609420     2A    -20.602641     3A    -20.585867
       4A    -20.585034     5A    -20.570675     6A     -1.389339
       7A     -1.370681     8A     -1.366948     9A     -1.358009
      10A     -1.344303    11A     -0.733751    12A     -0.733152
      13A     -0.726422    14A     -0.716353    15A     -0.693766
      16A     -0.632098    17A     -0.613804    18A     -0.595214
      19A     -0.594160    20A     -0.590693    21A     -0.544820
      22A     -0.539708    23A     -0.521962    24A     -0.517097
      25A     -0.516766

  @DF-RHF Final Energy:  -380.26876754192631

   => Energetics <=

    Nuclear Repulsion Energy =            160.8341348863808662
    One-Electron Energy =                -844.1004313254604767
    Two-Electron Energy =                 302.9975288971533018
    Total Energy =                       -380.2687675419263087
 Dipole X            :         40.0319163          -41.6869312           -1.6550150
 Dipole Y            :         37.7804215          -38.0073378           -0.2269163
 Dipole Z            :        -11.4854233           10.6701779           -0.8152454
 Magnitude           :                                                    1.8588143

    SAPT Results
  --------------------------------------------------------------------------------------------------------
    Electrostatics               -114.64976549 [mEh]     -71.94381401 [kcal/mol]    -301.01291781 [kJ/mol]
      Elst10,r                   -113.90139997 [mEh]     -71.47420756 [kcal/mol]    -299.04808443 [kJ/mol]
      Elst12,r                     -0.74836551 [mEh]      -0.46960645 [kcal/mol]      -1.96483338 [kJ/mol]

    Exchange                       96.55656664 [mEh]      60.59016032 [kcal/mol]     253.50923079 [kJ/mol]
      Exch10                       85.52475033 [mEh]      53.66759108 [kcal/mol]     224.54520106 [kJ/mol]
      Exch10(S^2)                  84.60715438 [mEh]      53.09179092 [kcal/mol]     222.13605322 [kJ/mol]
      Exch11(S^2)                   3.82758454 [mEh]       2.40184556 [kcal/mol]      10.04932183 [kJ/mol]
      Exch12(S^2)                   7.20423177 [mEh]       4.52072368 [kcal/mol]      18.91470790 [kJ/mol]

    Induction                     -43.22405914 [mEh]     -27.12350661 [kcal/mol]    -113.48475165 [kJ/mol]
      Ind20,r                     -67.10019043 [mEh]     -42.10600519 [kcal/mol]    -176.17152569 [kJ/mol]
      Ind22                        -8.56650062 [mEh]      -5.37556030 [kcal/mol]     -22.49134428 [kJ/mol]
      Exch-Ind20,r                 37.31275579 [mEh]      23.41410775 [kcal/mol]      97.96462683 [kJ/mol]
      Exch-Ind22                    4.76361905 [mEh]       2.98921609 [kcal/mol]      12.50688010 [kJ/mol]
      delta HF,r (2)               -9.63374294 [mEh]      -6.04526496 [kcal/mol]     -25.29338860 [kJ/mol]

    Dispersion                    -31.62599642 [mEh]     -19.84561237 [kcal/mol]     -83.03404215 [kJ/mol]
      Disp20                      -36.10572203 [mEh]     -22.65668263 [kcal/mol]     -94.79556013 [kJ/mol]
      Disp21                        2.52438904 [mEh]       1.58407804 [kcal/mol]       6.62778251 [kJ/mol]
      Disp22 (SDQ)                  0.00537248 [mEh]       0.00337128 [kcal/mol]       0.01410545 [kJ/mol]
      Disp22 (T)                   -5.77218917 [mEh]      -3.62210339 [kcal/mol]     -15.15488059 [kJ/mol]
      Est. Disp22 (T)              -6.58840928 [mEh]      -4.13428924 [kcal/mol]     -17.29786617 [kJ/mol]
      Exch-Disp20                   8.53837336 [mEh]       5.35791018 [kcal/mol]      22.41749618 [kJ/mol]

  Total HF                        -67.79782722 [mEh]     -42.54377888 [kcal/mol]    -178.00317084 [kJ/mol]
  Total SAPT0                     -95.36517588 [mEh]     -59.84255133 [kcal/mol]    -250.38123478 [kJ/mol]
  Total SAPT2                     -88.88460665 [mEh]     -55.77593275 [kcal/mol]    -233.36650262 [kJ/mol]
  Total SAPT2+                    -92.94325441 [mEh]     -58.32277266 [kcal/mol]    -244.02248083 [kJ/mol]

  Special recipe for scaled SAPT0 (see Manual):
    Electrostatics sSAPT0        -113.90139997 [mEh]     -71.47420756 [kcal/mol]    -299.04808443 [kJ/mol]
    Exchange sSAPT0                85.52475033 [mEh]      53.66759108 [kcal/mol]     224.54520106 [kJ/mol]
    Induction sSAPT0              -38.19395157 [mEh]     -23.96706645 [kcal/mol]    -100.27820602 [kJ/mol]
    Dispersion sSAPT0             -27.28651940 [mEh]     -17.12254943 [kcal/mol]     -71.64074680 [kJ/mol]
  Total sSAPT0                    -93.85712060 [mEh]     -58.89623236 [kcal/mol]    -246.42183619 [kJ/mol]
  --------------------------------------------------------------------------------------------------------

*** Psi4 exiting successfully. Buy a developer a beer!
