                               Psi4 1.8.2 release

  ==> Input File <==

--------------------------------------------------------------------------
MEMORY 60 GB

molecule dimer {
-1 1
Cl     0.000000     0.000000     0.000000
--
0 1
O      2.392892    -2.249336     0.528916
H      1.674089    -1.706624     0.209313
H      2.557296    -2.872549    -0.137894
O      0.444889    -1.472921    -3.121234
H     -0.461387    -1.401078    -3.412750
H      0.507135    -1.039894    -2.245373
O     -3.046056    -0.925525     0.944484
H     -2.313189    -0.468576     0.501708
H     -3.729574    -0.239388     1.075466
O      3.113696     1.295050    -0.353510
H      2.241301     1.067437     0.024019
H      3.028581     1.517922    -1.237394
O     -0.067022     3.095066     0.593650
H      0.114241     3.470367    -0.335940
H     -0.162182     2.157073     0.397022
O      0.244648     0.314880     3.296093
H      0.874277     1.006974     3.592872
H      0.245306     0.331853     2.336846

units ang
no_reorient
no_com
symmetry c1
}

set {
basis        aug-cc-pVTZ
scf_type     df
}

energy("sapt2+")
--------------------------------------------------------------------------

  //              Dimer HF             //
    Molecular point group: c1
  Charge       = -1
  Multiplicity = 1
  Basis Set: AUG-CC-PVTZ
    Blend: AUG-CC-PVTZ
  Basis Set: (AUG-CC-PVTZ AUX)
    Blend: AUG-CC-PVTZ-JKFIT
  @DF-RHF Final Energy:  -915.99778999610498
    Total Energy =                       -915.9977899961049843
 Dipole X            :        -56.5222008           55.2561021           -1.2660987
 Dipole Y            :         -3.4108949            4.3108980            0.9000031
 Dipole Z            :        -32.0131946           29.9995666           -2.0136279
 Magnitude           :                                                    2.5431691
  //            Monomer A HF           //
    Molecular point group: c1
  Multiplicity = 1
  Basis Set: AUG-CC-PVTZ
    Blend: AUG-CC-PVTZ
  Basis Set: (AUG-CC-PVTZ AUX)
    Blend: AUG-CC-PVTZ-JKFIT
  @DF-RHF Final Energy:  -459.57359265875982
    Total Energy =                       -459.5735926587598215
  //            Monomer B HF           //
    Molecular point group: c1

    Geometry (in Angstrom), charge = 0, multiplicity = 1:

       Center              X                  Y                   Z               Mass
    ------------   -----------------  -----------------  -----------------  -----------------
      Gh(CL)          0.000000000000     0.000000000000     0.000000000000    34.968852682000
         O            2.392892000000    -2.249336000000     0.528916000000    15.994914619570
         H            1.674089000000    -1.706624000000     0.209313000000     1.007825032230
         H            2.557296000000    -2.872549000000    -0.137894000000     1.007825032230
         O            0.444889000000    -1.472921000000    -3.121234000000    15.994914619570
         H           -0.461387000000    -1.401078000000    -3.412750000000     1.007825032230
         H            0.507135000000    -1.039894000000    -2.245373000000     1.007825032230
         O           -3.046056000000    -0.925525000000     0.944484000000    15.994914619570
         H           -2.313189000000    -0.468576000000     0.501708000000     1.007825032230
         H           -3.729574000000    -0.239388000000     1.075466000000     1.007825032230
         O            3.113696000000     1.295050000000    -0.353510000000    15.994914619570
         H            2.241301000000     1.067437000000     0.024019000000     1.007825032230
         H            3.028581000000     1.517922000000    -1.237394000000     1.007825032230
         O           -0.067022000000     3.095066000000     0.593650000000    15.994914619570
         H            0.114241000000     3.470367000000    -0.335940000000     1.007825032230
         H           -0.162182000000     2.157073000000     0.397022000000     1.007825032230
         O            0.244648000000     0.314880000000     3.296093000000    15.994914619570
         H            0.874277000000     1.006974000000     3.592872000000     1.007825032230
         H            0.245306000000     0.331853000000     2.336846000000     1.007825032230

  Charge       = 0
  Multiplicity = 1
  Basis Set: AUG-CC-PVTZ
    Blend: AUG-CC-PVTZ
  Basis Set: (AUG-CC-PVTZ AUX)
    Blend: AUG-CC-PVTZ-JKFIT

    Orbital Energies [Eh]
    ---------------------

    Doubly Occupied:

       1A    -20.605490     2A    -20.594601     3A    -20.584539
       4A    -20.579303     5A    -20.572388     6A    -20.569996
       7A     -1.373542     8A     -1.372915     9A     -1.370836
      10A     -1.367125    11A     -1.359243    12A     -1.349050
      13A     -0.752081    14A     -0.745277    15A     -0.736003
      16A     -0.725587    17A     -0.724166    18A     -0.718312
      19A     -0.614898    20A     -0.603423    21A     -0.594496
      22A     -0.591336    23A     -0.589776    24A     -0.580723
      25A     -0.539940    26A     -0.535187    27A     -0.526225
      28A     -0.522937    29A     -0.515305    30A     -0.511686

  @DF-RHF Final Energy:  -456.33786727829374

   => Energetics <=

    Nuclear Repulsion Energy =            222.6901111849785480
    One-Electron Energy =               -1072.4031769875482496
    Two-Electron Energy =                 393.3751985242759019
    Total Energy =                       -456.3378672782937429
 Dipole X            :        -56.2673834           55.2561021           -1.0112813
 Dipole Y            :         -3.1762745            4.3108980            1.1346235
 Dipole Z            :        -31.9212340           29.9995666           -1.9216674
 Magnitude           :                                                    2.4500747

    SAPT Results
  --------------------------------------------------------------------------------------------------------
    Electrostatics               -117.59543381 [mEh]     -73.79224879 [kcal/mol]    -308.74676893 [kJ/mol]
      Elst10,r                   -118.05230719 [mEh]     -74.07894116 [kcal/mol]    -309.94628982 [kJ/mol]
      Elst12,r                      0.45687338 [mEh]       0.28669237 [kcal/mol]       1.19952090 [kJ/mol]

    Exchange                       74.42576081 [mEh]      46.70287000 [kcal/mol]     195.40480810 [kJ/mol]
      Exch10                       64.60055203 [mEh]      40.53745841 [kcal/mol]     169.60872598 [kJ/mol]
      Exch10(S^2)                  64.29993674 [mEh]      40.34881947 [kcal/mol]     168.81946065 [kJ/mol]
      Exch11(S^2)                   3.44600249 [mEh]       2.16239921 [kcal/mol]       9.04747829 [kJ/mol]
      Exch12(S^2)                   6.37920630 [mEh]       4.00301239 [kcal/mol]      16.74860383 [kJ/mol]

    Induction                     -36.49418875 [mEh]     -22.90044918 [kcal/mol]     -95.81547937 [kJ/mol]
      Ind20,r                     -52.61324040 [mEh]     -33.01530680 [kcal/mol]    -138.13604363 [kJ/mol]
      Ind22                        -7.22326631 [mEh]      -4.53266804 [kcal/mol]     -18.96468309 [kJ/mol]
      Exch-Ind20,r                 26.27565138 [mEh]      16.48822017 [kcal/mol]      68.98671320 [kJ/mol]
      Exch-Ind22                    3.60738145 [mEh]       2.26366604 [kcal/mol]       9.47117870 [kJ/mol]
      delta HF,r (2)               -6.54071488 [mEh]      -4.10436055 [kcal/mol]     -17.17264454 [kJ/mol]

    Dispersion                    -29.28875671 [mEh]     -18.37897231 [kcal/mol]     -76.89762015 [kJ/mol]
      Disp20                      -32.26482755 [mEh]     -20.24648496 [kcal/mol]     -84.71129306 [kJ/mol]
      Disp21                        1.94698214 [mEh]       1.22174974 [kcal/mol]       5.11180091 [kJ/mol]
      Disp22 (SDQ)                 -0.07384721 [mEh]      -0.04633983 [kcal/mol]      -0.19388583 [kJ/mol]
      Disp22 (T)                   -5.24754704 [mEh]      -3.29288548 [kcal/mol]     -13.77743287 [kJ/mol]
      Est. Disp22 (T)              -6.03881319 [mEh]      -3.78941249 [kcal/mol]     -15.85490185 [kJ/mol]
      Exch-Disp20                   7.14174911 [mEh]       4.48151522 [kcal/mol]      18.75065970 [kJ/mol]

  Total HF                        -86.33005905 [mEh]     -54.17292993 [kcal/mol]    -226.65953881 [kJ/mol]
  Total SAPT0                    -111.45313749 [mEh]     -69.93789966 [kcal/mol]    -292.62017218 [kJ/mol]
  Total SAPT2                    -104.78694019 [mEh]     -65.75479770 [kcal/mol]    -275.11807356 [kJ/mol]
  Total SAPT2+                   -108.95261846 [mEh]     -68.36880027 [kcal/mol]    -286.05506035 [kJ/mol]

  Special recipe for scaled SAPT0 (see Manual):
    Electrostatics sSAPT0        -118.05230719 [mEh]     -74.07894116 [kcal/mol]    -309.94628982 [kJ/mol]
    Exchange sSAPT0                64.60055203 [mEh]      40.53745841 [kcal/mol]     169.60872598 [kJ/mol]
    Induction sSAPT0              -32.50804619 [mEh]     -20.39910696 [kcal/mol]     -85.34986352 [kJ/mol]
    Dispersion sSAPT0             -25.02244202 [mEh]     -15.70181942 [kcal/mol]     -65.69641247 [kJ/mol]
  Total sSAPT0                   -110.98224337 [mEh]     -69.64240914 [kcal/mol]    -291.38383983 [kJ/mol]
  --------------------------------------------------------------------------------------------------------

*** Psi4 exiting successfully. Buy a developer a beer!
