                               Psi4 1.8.2 release

  ==> Input File <==

--------------------------------------------------------------------------
MEMORY 60 GB

molecule dimer {
-1 1
Cl     0.000000     0.000000     0.000000
--
0 1
O      1.771129     2.489187     0.169336
H      1.379107     1.608893     0.191284
H      1.074826     3.009005    -0.305359
O     -0.595761    -2.485321     1.681379
H     -0.839779    -2.280443     2.596276
H     -0.383113    -1.560361     1.328127
O     -3.305344     0.023545    -0.246950
H     -3.552244    -0.023220    -1.134455
H     -2.322919     0.116370    -0.213788

units ang
no_reorient
no_com
symmetry c1
}

set {
basis        aug-cc-pVTZ
scf_type     df
}

energy("sapt2+")
--------------------------------------------------------------------------

  //              Dimer HF             //
    Molecular point group: c1
  Charge       = -1
  Multiplicity = 1
  Basis Set: AUG-CC-PVTZ
    Blend: AUG-CC-PVTZ
  Basis Set: (AUG-CC-PVTZ AUX)
    Blend: AUG-CC-PVTZ-JKFIT
  @DF-RHF Final Energy:  -687.79128971523005
    Total Energy =                       -687.7912897152300502
 Dipole X            :         40.9887639          -40.9766890            0.0120749
 Dipole Y            :         -1.6031267            2.0589171            0.4557904
 Dipole Z            :        -29.6788831           28.8980793           -0.7808038
 Magnitude           :                                                    0.9041821
  //            Monomer A HF           //
    Molecular point group: c1
  Multiplicity = 1
  Basis Set: AUG-CC-PVTZ
    Blend: AUG-CC-PVTZ
  Basis Set: (AUG-CC-PVTZ AUX)
    Blend: AUG-CC-PVTZ-JKFIT
  @DF-RHF Final Energy:  -459.57355262484936
    Total Energy =                       -459.5735526248493557
  //            Monomer B HF           //
    Molecular point group: c1

    Geometry (in Angstrom), charge = 0, multiplicity = 1:

       Center              X                  Y                   Z               Mass
    ------------   -----------------  -----------------  -----------------  -----------------
      Gh(CL)          0.000000000000     0.000000000000     0.000000000000    34.968852682000
         O            1.771129000000     2.489187000000     0.169336000000    15.994914619570
         H            1.379107000000     1.608893000000     0.191284000000     1.007825032230
         H            1.074826000000     3.009005000000    -0.305359000000     1.007825032230
         O           -0.595761000000    -2.485321000000     1.681379000000    15.994914619570
         H           -0.839779000000    -2.280443000000     2.596276000000     1.007825032230
         H           -0.383113000000    -1.560361000000     1.328127000000     1.007825032230
         O           -3.305344000000     0.023545000000    -0.246950000000    15.994914619570
         H           -3.552244000000    -0.023220000000    -1.134455000000     1.007825032230
         H           -2.322919000000     0.116370000000    -0.213788000000     1.007825032230

  Charge       = 0
  Multiplicity = 1
  Basis Set: AUG-CC-PVTZ
    Blend: AUG-CC-PVTZ
  Basis Set: (AUG-CC-PVTZ AUX)
    Blend: AUG-CC-PVTZ-JKFIT

    Orbital Energies [Eh]
    ---------------------

    Doubly Occupied:

       1A    -20.582509     2A    -20.580599     3A    -20.574741
       4A     -1.363028     5A     -1.356224     6A     -1.345709
       7A     -0.735282     8A     -0.712516     9A     -0.699527
      10A     -0.596526    11A     -0.590944    12A     -0.588076
      13A     -0.519941    14A     -0.519457    15A     -0.514061

  @DF-RHF Final Energy:  -228.16898001101586

   => Energetics <=

    Nuclear Repulsion Energy =             59.1772043412538196
    One-Electron Energy =                -432.1340897133670751
    Two-Electron Energy =                 144.7879053610974154
    Total Energy =                       -228.1689800110158615
 Dipole X            :         40.7060848          -40.9766890           -0.2706042
 Dipole Y            :         -1.5642042            2.0589171            0.4947128
 Dipole Z            :        -29.3925099           28.8980793           -0.4944306
 Magnitude           :                                                    0.7499527

    SAPT Results
  --------------------------------------------------------------------------------------------------------
    Electrostatics                -82.34512454 [mEh]     -51.67234577 [kcal/mol]    -216.19709470 [kJ/mol]
      Elst10,r                    -81.88537753 [mEh]     -51.38385017 [kcal/mol]    -214.99002910 [kJ/mol]
      Elst12,r                     -0.45974701 [mEh]      -0.28849560 [kcal/mol]      -1.20706561 [kJ/mol]

    Exchange                       69.28405488 [mEh]      43.47640082 [kcal/mol]     181.90526103 [kJ/mol]
      Exch10                       61.70488220 [mEh]      38.72039816 [kcal/mol]     162.00614589 [kJ/mol]
      Exch10(S^2)                  60.93163020 [mEh]      38.23517520 [kcal/mol]     159.97597305 [kJ/mol]
      Exch11(S^2)                   2.83726138 [mEh]       1.78040840 [kcal/mol]       7.44922873 [kJ/mol]
      Exch12(S^2)                   4.74191130 [mEh]       2.97559427 [kcal/mol]      12.44988641 [kJ/mol]

    Induction                     -31.04500929 [mEh]     -19.48103744 [kcal/mol]     -81.50866066 [kJ/mol]
      Ind20,r                     -47.56150504 [mEh]     -29.84529500 [kcal/mol]    -124.87271428 [kJ/mol]
      Ind22                        -5.80044385 [mEh]      -3.63983347 [kcal/mol]     -15.22906323 [kJ/mol]
      Exch-Ind20,r                 27.32132628 [mEh]      17.14439108 [kcal/mol]      71.73213227 [kJ/mol]
      Exch-Ind22                    3.33201859 [mEh]       2.09087323 [kcal/mol]       8.74821361 [kJ/mol]
      delta HF,r (2)               -8.33640527 [mEh]      -5.23117328 [kcal/mol]     -21.88722902 [kJ/mol]

    Dispersion                    -20.89013873 [mEh]     -13.10875996 [kcal/mol]     -54.84705167 [kJ/mol]
      Disp20                      -24.07917419 [mEh]     -15.10990992 [kcal/mol]     -63.21986312 [kJ/mol]
      Disp21                        1.44926008 [mEh]       0.90942443 [kcal/mol]       3.80503181 [kJ/mol]
      Disp22 (SDQ)                  0.13289323 [mEh]       0.08339176 [kcal/mol]       0.34891113 [kJ/mol]
      Disp22 (T)                   -3.74910530 [mEh]      -2.35259910 [kcal/mol]      -9.84327462 [kJ/mol]
      Est. Disp22 (T)              -4.29747270 [mEh]      -2.69670483 [kcal/mol]     -11.28301302 [kJ/mol]
      Exch-Disp20                   5.90435485 [mEh]       3.70503861 [kcal/mol]      15.50188153 [kJ/mol]

  Total HF                        -48.75707936 [mEh]     -30.59552922 [kcal/mol]    -128.01169424 [kJ/mol]
  Total SAPT0                     -66.93189870 [mEh]     -42.00040053 [kcal/mol]    -175.72967582 [kJ/mol]
  Total SAPT2                     -62.28089829 [mEh]     -39.08185371 [kcal/mol]    -163.51847592 [kJ/mol]
  Total SAPT2+                    -64.99621768 [mEh]     -40.78574235 [kcal/mol]    -170.64754601 [kJ/mol]

  Special recipe for scaled SAPT0 (see Manual):
    Electrostatics sSAPT0         -81.88537753 [mEh]     -51.38385017 [kcal/mol]    -214.99002910 [kJ/mol]
    Exchange sSAPT0                61.70488220 [mEh]      38.72039816 [kcal/mol]     162.00614589 [kJ/mol]
    Induction sSAPT0              -27.52316530 [mEh]     -17.27104697 [kcal/mol]     -72.26206053 [kJ/mol]
    Dispersion sSAPT0             -17.94716721 [mEh]     -11.26201745 [kcal/mol]     -47.12028101 [kJ/mol]
  Total sSAPT0                    -65.65082784 [mEh]     -41.19651643 [kcal/mol]    -172.36622475 [kJ/mol]
  --------------------------------------------------------------------------------------------------------

*** Psi4 exiting successfully. Buy a developer a beer!
