                               Psi4 1.8.2 release

  ==> Input File <==

--------------------------------------------------------------------------
MEMORY 60 GB

molecule dimer {
-1 1
Cl     0.000000     0.000000     0.000000
--
0 1
O      3.232758    -0.679143     0.998305
H      2.352463    -0.253635     0.918000
H      3.312977    -1.122656     1.834457
O     -2.454936    -1.285230     1.810301
H     -2.196769    -2.160432     1.613182
H     -1.954067    -0.746562     1.210287
O      0.873783     0.373195    -3.146906
H      0.360272     0.651094    -2.330817
H      0.607163    -0.517887    -3.260182
O     -1.303045     2.387289    -1.279544
H     -0.857699     1.743440    -0.735850
H     -1.694295     1.907056    -2.005066
O      0.564214     2.052023     2.184843
H      1.485460     2.275701     2.191810
H      0.459226     1.382168     1.506702

units ang
no_reorient
no_com
symmetry c1
}

set {
basis        aug-cc-pVTZ
scf_type     df
}

energy("sapt2+")
--------------------------------------------------------------------------

  //              Dimer HF             //
    Molecular point group: c1
  Charge       = -1
  Multiplicity = 1
  Basis Set: AUG-CC-PVTZ
    Blend: AUG-CC-PVTZ
  Basis Set: (AUG-CC-PVTZ AUX)
    Blend: AUG-CC-PVTZ-JKFIT
  @DF-RHF Final Energy:  -839.93117507705222
    Total Energy =                       -839.9311750770522167
 Dipole X            :        -17.2874239           17.3418711            0.0544473
 Dipole Y            :        -51.0861836           49.0258433           -2.0603403
 Dipole Z            :        -10.5346590           10.3528929           -0.1817661
 Magnitude           :                                                    2.0690591
  //            Monomer A HF           //
    Molecular point group: c1
  Multiplicity = 1
  Basis Set: AUG-CC-PVTZ
    Blend: AUG-CC-PVTZ
  Basis Set: (AUG-CC-PVTZ AUX)
    Blend: AUG-CC-PVTZ-JKFIT
  @DF-RHF Final Energy:  -459.57357724689194
    Total Energy =                       -459.5735772468919436
  //            Monomer B HF           //
    Molecular point group: c1

    Geometry (in Angstrom), charge = 0, multiplicity = 1:

       Center              X                  Y                   Z               Mass
    ------------   -----------------  -----------------  -----------------  -----------------
      Gh(CL)          0.000000000000     0.000000000000     0.000000000000    34.968852682000
         O            3.232758000000    -0.679143000000     0.998305000000    15.994914619570
         H            2.352463000000    -0.253635000000     0.918000000000     1.007825032230
         H            3.312977000000    -1.122656000000     1.834457000000     1.007825032230
         O           -2.454936000000    -1.285230000000     1.810301000000    15.994914619570
         H           -2.196769000000    -2.160432000000     1.613182000000     1.007825032230
         H           -1.954067000000    -0.746562000000     1.210287000000     1.007825032230
         O            0.873783000000     0.373195000000    -3.146906000000    15.994914619570
         H            0.360272000000     0.651094000000    -2.330817000000     1.007825032230
         H            0.607163000000    -0.517887000000    -3.260182000000     1.007825032230
         O           -1.303045000000     2.387289000000    -1.279544000000    15.994914619570
         H           -0.857699000000     1.743440000000    -0.735850000000     1.007825032230
         H           -1.694295000000     1.907056000000    -2.005066000000     1.007825032230
         O            0.564214000000     2.052023000000     2.184843000000    15.994914619570
         H            1.485460000000     2.275701000000     2.191810000000     1.007825032230
         H            0.459226000000     1.382168000000     1.506702000000     1.007825032230

  Charge       = 0
  Multiplicity = 1
  Basis Set: AUG-CC-PVTZ
    Blend: AUG-CC-PVTZ
  Basis Set: (AUG-CC-PVTZ AUX)
    Blend: AUG-CC-PVTZ-JKFIT

    Orbital Energies [Eh]
    ---------------------

    Doubly Occupied:

       1A    -20.589727     2A    -20.586742     3A    -20.586273
       4A    -20.584697     5A    -20.580533     6A     -1.378516
       7A     -1.377963     8A     -1.375155     9A     -1.365366
      10A     -1.364097    11A     -0.749074    12A     -0.744022
      13A     -0.742934    14A     -0.741702    15A     -0.723882
      16A     -0.608269    17A     -0.602920    18A     -0.602544
      19A     -0.596884    20A     -0.588991    21A     -0.533566
      22A     -0.530399    23A     -0.527250    24A     -0.526186
      25A     -0.524846

  @DF-RHF Final Energy:  -380.28723476802946

   => Energetics <=

    Nuclear Repulsion Energy =            159.7504086995646162
    One-Electron Energy =                -841.8102060288845223
    Two-Electron Energy =                 301.7725625612904992
    Total Energy =                       -380.2872347680294638
 Dipole X            :        -17.2900784           17.3418711            0.0517928
 Dipole Y            :        -50.6198952           49.0258433           -1.5940519
 Dipole Z            :        -10.4583927           10.3528929           -0.1054997
 Magnitude           :                                                    1.5983786

    SAPT Results
  --------------------------------------------------------------------------------------------------------
    Electrostatics               -116.77878189 [mEh]     -73.27979197 [kcal/mol]    -306.60264961 [kJ/mol]
      Elst10,r                   -116.59228655 [mEh]     -73.16276438 [kcal/mol]    -306.11300615 [kJ/mol]
      Elst12,r                     -0.18649534 [mEh]      -0.11702759 [kcal/mol]      -0.48964345 [kJ/mol]

    Exchange                       92.56902445 [mEh]      58.08793982 [kcal/mol]     243.03994022 [kJ/mol]
      Exch10                       81.59585877 [mEh]      51.20217440 [kcal/mol]     214.22989768 [kJ/mol]
      Exch10(S^2)                  80.86613812 [mEh]      50.74426778 [kcal/mol]     212.31401638 [kJ/mol]
      Exch11(S^2)                   3.73434121 [mEh]       2.34333449 [kcal/mol]       9.80451149 [kJ/mol]
      Exch12(S^2)                   7.23882448 [mEh]       4.54243094 [kcal/mol]      19.00553105 [kJ/mol]

    Induction                     -39.14970078 [mEh]     -24.56680813 [kcal/mol]    -102.78752523 [kJ/mol]
      Ind20,r                     -63.39163404 [mEh]     -39.77885092 [kcal/mol]    -166.43471224 [kJ/mol]
      Ind22                        -8.94147782 [mEh]      -5.61086204 [kcal/mol]     -23.47584677 [kJ/mol]
      Exch-Ind20,r                 36.57115010 [mEh]      22.94874316 [kcal/mol]      96.01754137 [kJ/mol]
      Exch-Ind22                    5.15841139 [mEh]       3.23695202 [kcal/mol]      13.54340725 [kJ/mol]
      delta HF,r (2)               -8.54615042 [mEh]      -5.36279035 [kcal/mol]     -22.43791483 [kJ/mol]

    Dispersion                    -30.05780401 [mEh]     -18.86155678 [kcal/mol]     -78.91675357 [kJ/mol]
      Disp20                      -34.22492480 [mEh]     -21.47646455 [kcal/mol]     -89.85752768 [kJ/mol]
      Disp21                        2.26223165 [mEh]       1.41957179 [kcal/mol]       5.93948839 [kJ/mol]
      Disp22 (SDQ)                 -0.07949841 [mEh]      -0.04988600 [kcal/mol]      -0.20872304 [kJ/mol]
      Disp22 (T)                   -5.44103216 [mEh]      -3.41429923 [kcal/mol]     -14.28542797 [kJ/mol]
      Est. Disp22 (T)              -6.23685993 [mEh]      -3.91368869 [kcal/mol]     -16.37487349 [kJ/mol]
      Exch-Disp20                   8.22124747 [mEh]       5.15891067 [kcal/mol]      21.58488225 [kJ/mol]

  Total HF                        -70.36306213 [mEh]     -44.15348809 [kcal/mol]    -184.73819417 [kJ/mol]
  Total SAPT0                     -96.36673946 [mEh]     -60.47104197 [kcal/mol]    -253.01083961 [kJ/mol]
  Total SAPT2                     -89.36313554 [mEh]     -56.07621416 [kcal/mol]    -234.62288004 [kJ/mol]
  Total SAPT2+                    -93.41726222 [mEh]     -58.62021706 [kcal/mol]    -245.26698818 [kJ/mol]

  Special recipe for scaled SAPT0 (see Manual):
    Electrostatics sSAPT0        -116.59228655 [mEh]     -73.16276438 [kcal/mol]    -306.11300615 [kJ/mol]
    Exchange sSAPT0                81.59585877 [mEh]      51.20217440 [kcal/mol]     214.22989768 [kJ/mol]
    Induction sSAPT0              -34.36764030 [mEh]     -21.56601988 [kcal/mol]     -90.23222719 [kJ/mol]
    Dispersion sSAPT0             -25.77910202 [mEh]     -16.17663075 [kcal/mol]     -67.68302304 [kJ/mol]
  Total sSAPT0                    -95.14317010 [mEh]     -59.70324061 [kcal/mol]    -249.79835869 [kJ/mol]
  --------------------------------------------------------------------------------------------------------

*** Psi4 exiting successfully. Buy a developer a beer!
