                               Psi4 1.8.2 release

  ==> Input File <==

--------------------------------------------------------------------------
MEMORY 60 GB

molecule dimer {
-1 1
Cl     0.000000     0.000000     0.000000
--
0 1
O      3.112411    -0.510579     1.136854
H      2.370520    -0.257961     1.690682
H      3.753338    -1.047204     1.647019
O     -2.960096    -1.202549     0.650023
H     -2.871814    -2.140675     0.467832
H     -2.150687    -0.805819     0.422640
O     -2.286463     2.389191     0.707858
H     -1.879680     1.516328     0.601139
H     -3.105064     2.383095     0.187160
O      0.222845     1.410868     2.777416
H      0.764077     2.178359     2.611442
H      0.077727     1.005070     1.910475

units ang
no_reorient
no_com
symmetry c1
}

set {
basis        aug-cc-pVTZ
scf_type     df
}

energy("sapt2+")
--------------------------------------------------------------------------

  //              Dimer HF             //
    Molecular point group: c1
  Charge       = -1
  Multiplicity = 1
  Basis Set: AUG-CC-PVTZ
    Blend: AUG-CC-PVTZ
  Basis Set: (AUG-CC-PVTZ AUX)
    Blend: AUG-CC-PVTZ-JKFIT
  @DF-RHF Final Energy:  -763.85241627634798
    Total Energy =                       -763.8524162763479808
 Dipole X            :         35.5437119          -34.6424726            0.9012393
 Dipole Y            :        -38.0071211           36.9000036           -1.1071175
 Dipole Z            :        -98.9529985           97.7283147           -1.2246838
 Magnitude           :                                                    1.8809019
  //            Monomer A HF           //
    Molecular point group: c1
  Multiplicity = 1
  Basis Set: AUG-CC-PVTZ
    Blend: AUG-CC-PVTZ
  Basis Set: (AUG-CC-PVTZ AUX)
    Blend: AUG-CC-PVTZ-JKFIT
  @DF-RHF Final Energy:  -459.57355307557248
    Total Energy =                       -459.5735530755724767
  //            Monomer B HF           //
    Molecular point group: c1

    Geometry (in Angstrom), charge = 0, multiplicity = 1:

       Center              X                  Y                   Z               Mass
    ------------   -----------------  -----------------  -----------------  -----------------
      Gh(CL)          0.000000000000     0.000000000000     0.000000000000    34.968852682000
         O            3.112411000000    -0.510579000000     1.136854000000    15.994914619570
         H            2.370520000000    -0.257961000000     1.690682000000     1.007825032230
         H            3.753338000000    -1.047204000000     1.647019000000     1.007825032230
         O           -2.960096000000    -1.202549000000     0.650023000000    15.994914619570
         H           -2.871814000000    -2.140675000000     0.467832000000     1.007825032230
         H           -2.150687000000    -0.805819000000     0.422640000000     1.007825032230
         O           -2.286463000000     2.389191000000     0.707858000000    15.994914619570
         H           -1.879680000000     1.516328000000     0.601139000000     1.007825032230
         H           -3.105064000000     2.383095000000     0.187160000000     1.007825032230
         O            0.222845000000     1.410868000000     2.777416000000    15.994914619570
         H            0.764077000000     2.178359000000     2.611442000000     1.007825032230
         H            0.077727000000     1.005070000000     1.910475000000     1.007825032230

  Charge       = 0
  Multiplicity = 1
  Basis Set: AUG-CC-PVTZ
    Blend: AUG-CC-PVTZ
  Basis Set: (AUG-CC-PVTZ AUX)
    Blend: AUG-CC-PVTZ-JKFIT

    Orbital Energies [Eh]
    ---------------------

    Doubly Occupied:

       1A    -20.579177     2A    -20.576579     3A    -20.571552
       4A    -20.570787     5A     -1.374247     6A     -1.360524
       7A     -1.348735     8A     -1.348099     9A     -0.746544
      10A     -0.730009    11A     -0.726756    12A     -0.716640
      13A     -0.597552    14A     -0.590965    15A     -0.580187
      16A     -0.577029    17A     -0.525831    18A     -0.519194
      19A     -0.512973    20A     -0.510272

  @DF-RHF Final Energy:  -304.23498755248050

   => Energetics <=

    Nuclear Repulsion Energy =            109.9916654115122299
    One-Electron Energy =                -638.3260002161628108
    Two-Electron Energy =                 224.0993472521700483
    Total Energy =                       -304.2349875524805043
 Dipole X            :         35.0791006          -34.6424726            0.4366280
 Dipole Y            :        -37.7464734           36.9000036           -0.8464698
 Dipole Z            :        -98.3116040           97.7283147           -0.5832893
 Magnitude           :                                                    1.1168624

    SAPT Results
  --------------------------------------------------------------------------------------------------------
    Electrostatics                -65.43068707 [mEh]     -41.05837601 [kcal/mol]    -171.78824524 [kJ/mol]
      Elst10,r                    -64.49762838 [mEh]     -40.47287284 [kcal/mol]    -169.33849998 [kJ/mol]
      Elst12,r                     -0.93305869 [mEh]      -0.58550317 [kcal/mol]      -2.44974526 [kJ/mol]

    Exchange                       53.57848144 [mEh]      33.62100469 [kcal/mol]     140.67028364 [kJ/mol]
      Exch10                       47.36182269 [mEh]      29.71999243 [kcal/mol]     124.34844834 [kJ/mol]
      Exch10(S^2)                  46.90208085 [mEh]      29.43150007 [kcal/mol]     123.14139631 [kJ/mol]
      Exch11(S^2)                   1.68939527 [mEh]       1.06011154 [kcal/mol]       4.43550666 [kJ/mol]
      Exch12(S^2)                   4.52726348 [mEh]       2.84090073 [kcal/mol]      11.88632864 [kJ/mol]

    Induction                     -29.19312915 [mEh]     -18.31896511 [kcal/mol]     -76.64655002 [kJ/mol]
      Ind20,r                     -42.28414207 [mEh]     -26.53369974 [kcal/mol]    -111.01699970 [kJ/mol]
      Ind22                        -5.36215435 [mEh]      -3.36480265 [kcal/mol]     -14.07833430 [kJ/mol]
      Exch-Ind20,r                 22.93835120 [mEh]      14.39403269 [kcal/mol]      60.22463277 [kJ/mol]
      Exch-Ind22                    2.90886781 [mEh]       1.82534211 [kcal/mol]       7.63723137 [kJ/mol]
      delta HF,r (2)               -7.39405174 [mEh]      -4.63983752 [kcal/mol]     -19.41308016 [kJ/mol]

    Dispersion                    -19.10160064 [mEh]     -11.98643537 [kcal/mol]     -50.15124558 [kJ/mol]
      Disp20                      -21.51618088 [mEh]     -13.50160734 [kcal/mol]     -56.49072513 [kJ/mol]
      Disp21                        1.43628987 [mEh]       0.90128550 [kcal/mol]       3.77097853 [kJ/mol]
      Disp22 (SDQ)                 -0.02868219 [mEh]      -0.01799835 [kcal/mol]      -0.07530508 [kJ/mol]
      Disp22 (T)                   -3.40496614 [mEh]      -2.13664851 [kcal/mol]      -8.93973737 [kJ/mol]
      Est. Disp22 (T)              -3.92602271 [mEh]      -2.46361645 [kcal/mol]     -10.30777121 [kJ/mol]
      Exch-Disp20                   4.93299527 [mEh]       3.09550127 [kcal/mol]      12.95157730 [kJ/mol]

  Total HF                        -43.87564829 [mEh]     -27.53238497 [kcal/mol]    -115.19549873 [kJ/mol]
  Total SAPT0                     -60.45883391 [mEh]     -37.93849105 [kcal/mol]    -158.73464655 [kJ/mol]
  Total SAPT2                     -57.62852039 [mEh]     -36.16244250 [kcal/mol]    -151.30365944 [kJ/mol]
  Total SAPT2+                    -60.14693542 [mEh]     -37.74277180 [kcal/mol]    -157.91575719 [kJ/mol]

  Special recipe for scaled SAPT0 (see Manual):
    Electrostatics sSAPT0         -64.49762838 [mEh]     -40.47287284 [kcal/mol]    -169.33849998 [kJ/mol]
    Exchange sSAPT0                47.36182269 [mEh]      29.71999243 [kcal/mol]     124.34844834 [kJ/mol]
    Induction sSAPT0              -26.05867272 [mEh]     -16.35206401 [kcal/mol]     -68.41703580 [kJ/mol]
    Dispersion sSAPT0             -16.43669697 [mEh]     -10.31418307 [kcal/mol]     -43.15454196 [kJ/mol]
  Total sSAPT0                    -59.63117538 [mEh]     -37.41912748 [kcal/mol]    -156.56162939 [kJ/mol]
  --------------------------------------------------------------------------------------------------------

*** Psi4 exiting successfully. Buy a developer a beer!
