                               Psi4 1.8.2 release

  ==> Input File <==

--------------------------------------------------------------------------
MEMORY 60 GB

molecule dimer {
-1 1
Cl     0.000000     0.000000     0.000000
--
0 1
O     -2.410834    -0.087828    -2.505110
H     -1.817553    -0.796160    -2.294247
H     -2.723707    -0.242293    -3.424832
O     -2.085208     1.991842     1.728213
H     -1.416728     1.372400     1.423648
H     -2.024935     2.657723     1.018972
O     -1.336003     2.724781    -1.712998
H     -1.329154     2.487387    -2.671129
H     -1.463313     1.836521    -1.398655
O      0.693185     1.358756     3.016970
H      0.630046     0.870811     3.863689
H      0.669578     0.732034     2.210643
O      2.806877     0.571110    -1.252195
H      2.915446     1.526704    -1.285028
H      1.961445     0.365407    -0.870162
O      0.909191    -2.895189    -1.081663
H      1.611131    -2.667095    -1.699815
H      0.566234    -2.019767    -0.903729

units ang
no_reorient
no_com
symmetry c1
}

set {
basis        aug-cc-pVTZ
scf_type     df
}

energy("sapt2+")
--------------------------------------------------------------------------

  //              Dimer HF             //
    Molecular point group: c1
  Charge       = -1
  Multiplicity = 1
  Basis Set: AUG-CC-PVTZ
    Blend: AUG-CC-PVTZ
  Basis Set: (AUG-CC-PVTZ AUX)
    Blend: AUG-CC-PVTZ-JKFIT
  @DF-RHF Final Energy:  -915.98540491862798
    Total Energy =                       -915.9854049186279781
 Dipole X            :         26.1335736          -26.0854884            0.0480851
 Dipole Y            :        -67.9446484           66.9557329           -0.9889154
 Dipole Z            :         37.2521824          -38.7108677           -1.4586853
 Magnitude           :                                                    1.7629602
  //            Monomer A HF           //
    Molecular point group: c1
  Multiplicity = 1
  Basis Set: AUG-CC-PVTZ
    Blend: AUG-CC-PVTZ
  Basis Set: (AUG-CC-PVTZ AUX)
    Blend: AUG-CC-PVTZ-JKFIT
  @DF-RHF Final Energy:  -459.57358100291788
    Total Energy =                       -459.5735810029178765
  //            Monomer B HF           //
    Molecular point group: c1

    Geometry (in Angstrom), charge = 0, multiplicity = 1:

       Center              X                  Y                   Z               Mass
    ------------   -----------------  -----------------  -----------------  -----------------
      Gh(CL)          0.000000000000     0.000000000000     0.000000000000    34.968852682000
         O           -2.410834000000    -0.087828000000    -2.505110000000    15.994914619570
         H           -1.817553000000    -0.796160000000    -2.294247000000     1.007825032230
         H           -2.723707000000    -0.242293000000    -3.424832000000     1.007825032230
         O           -2.085208000000     1.991842000000     1.728213000000    15.994914619570
         H           -1.416728000000     1.372400000000     1.423648000000     1.007825032230
         H           -2.024935000000     2.657723000000     1.018972000000     1.007825032230
         O           -1.336003000000     2.724781000000    -1.712998000000    15.994914619570
         H           -1.329154000000     2.487387000000    -2.671129000000     1.007825032230
         H           -1.463313000000     1.836521000000    -1.398655000000     1.007825032230
         O            0.693185000000     1.358756000000     3.016970000000    15.994914619570
         H            0.630046000000     0.870811000000     3.863689000000     1.007825032230
         H            0.669578000000     0.732034000000     2.210643000000     1.007825032230
         O            2.806877000000     0.571110000000    -1.252195000000    15.994914619570
         H            2.915446000000     1.526704000000    -1.285028000000     1.007825032230
         H            1.961445000000     0.365407000000    -0.870162000000     1.007825032230
         O            0.909191000000    -2.895189000000    -1.081663000000    15.994914619570
         H            1.611131000000    -2.667095000000    -1.699815000000     1.007825032230
         H            0.566234000000    -2.019767000000    -0.903729000000     1.007825032230

  Charge       = 0
  Multiplicity = 1
  Basis Set: AUG-CC-PVTZ
    Blend: AUG-CC-PVTZ
  Basis Set: (AUG-CC-PVTZ AUX)
    Blend: AUG-CC-PVTZ-JKFIT

    Orbital Energies [Eh]
    ---------------------

    Doubly Occupied:

       1A    -20.601917     2A    -20.590275     3A    -20.584597
       4A    -20.576802     5A    -20.573110     6A    -20.557790
       7A     -1.383900     8A     -1.376430     9A     -1.370541
      10A     -1.356139    11A     -1.339949    12A     -1.333801
      13A     -0.753281    14A     -0.747596    15A     -0.726596
      16A     -0.716365    17A     -0.697633    18A     -0.688998
      19A     -0.624137    20A     -0.614206    21A     -0.598053
      22A     -0.595775    23A     -0.579610    24A     -0.568074
      25A     -0.543617    26A     -0.531852    27A     -0.528732
      28A     -0.515539    29A     -0.513941    30A     -0.492742

  @DF-RHF Final Energy:  -456.34381292104047

   => Energetics <=

    Nuclear Repulsion Energy =            226.7488688337566032
    One-Electron Energy =               -1080.8213687901156845
    Two-Electron Energy =                 397.7286870353185577
    Total Energy =                       -456.3438129210404668
 Dipole X            :         26.3291586          -26.0854884            0.2436702
 Dipole Y            :        -67.7549505           66.9557329           -0.7992176
 Dipole Z            :         37.1353611          -38.7108677           -1.5755066
 Magnitude           :                                                    1.7833522

    SAPT Results
  --------------------------------------------------------------------------------------------------------
    Electrostatics                -98.68996692 [mEh]     -61.92888921 [kcal/mol]    -259.11047245 [kJ/mol]
      Elst10,r                    -98.27105448 [mEh]     -61.66601768 [kcal/mol]    -258.01061798 [kJ/mol]
      Elst12,r                     -0.41891244 [mEh]      -0.26287153 [kcal/mol]      -1.09985447 [kJ/mol]

    Exchange                       70.14074116 [mEh]      44.01397957 [kcal/mol]     184.15449054 [kJ/mol]
      Exch10                       61.14795268 [mEh]      38.37091961 [kcal/mol]     160.54392764 [kJ/mol]
      Exch10(S^2)                  60.75485673 [mEh]      38.12424818 [kcal/mol]     159.51185437 [kJ/mol]
      Exch11(S^2)                   2.95698247 [mEh]       1.85553452 [kcal/mol]       7.76355641 [kJ/mol]
      Exch12(S^2)                   6.03580601 [mEh]       3.78752545 [kcal/mol]      15.84700649 [kJ/mol]

    Induction                     -34.19823577 [mEh]     -21.45971693 [kcal/mol]     -89.78745564 [kJ/mol]
      Ind20,r                     -51.13944255 [mEh]     -32.09048468 [kcal/mol]    -134.26658792 [kJ/mol]
      Ind22                        -6.97992820 [mEh]      -4.37997107 [kcal/mol]     -18.32579898 [kJ/mol]
      Exch-Ind20,r                 26.88574170 [mEh]      16.87105763 [kcal/mol]      70.58850512 [kJ/mol]
      Exch-Ind22                    3.66958530 [mEh]       2.30269954 [kcal/mol]       9.63449489 [kJ/mol]
      delta HF,r (2)               -6.63419202 [mEh]      -4.16301835 [kcal/mol]     -17.41806876 [kJ/mol]

    Dispersion                    -27.26045516 [mEh]     -17.10619387 [kcal/mol]     -71.57231517 [kJ/mol]
      Disp20                      -30.25595636 [mEh]     -18.98589926 [kcal/mol]     -79.43700248 [kJ/mol]
      Disp21                        1.94336559 [mEh]       1.21948032 [kcal/mol]       5.10230566 [kJ/mol]
      Disp22 (SDQ)                 -0.07424771 [mEh]      -0.04659114 [kcal/mol]      -0.19493734 [kJ/mol]
      Disp22 (T)                   -4.88349374 [mEh]      -3.06443859 [kcal/mol]     -12.82161104 [kJ/mol]
      Est. Disp22 (T)              -5.64062467 [mEh]      -3.53954542 [kcal/mol]     -14.80945804 [kJ/mol]
      Exch-Disp20                   6.76700799 [mEh]       4.24636162 [kcal/mol]      17.76677703 [kJ/mol]

  Total HF                        -68.01099467 [mEh]     -42.67754348 [kcal/mol]    -178.56284190 [kJ/mol]
  Total SAPT0                     -91.49994304 [mEh]     -57.41708111 [kcal/mol]    -240.23306736 [kJ/mol]
  Total SAPT2                     -86.23640990 [mEh]     -54.11416420 [kcal/mol]    -226.41366300 [kJ/mol]
  Total SAPT2+                    -90.00791669 [mEh]     -56.48082044 [kcal/mol]    -236.31575273 [kJ/mol]

  Special recipe for scaled SAPT0 (see Manual):
    Electrostatics sSAPT0         -98.27105448 [mEh]     -61.66601768 [kcal/mol]    -258.01061798 [kJ/mol]
    Exchange sSAPT0                61.14795268 [mEh]      38.37091961 [kcal/mol]     160.54392764 [kJ/mol]
    Induction sSAPT0              -30.36264079 [mEh]     -19.05284474 [kcal/mol]     -79.71710241 [kJ/mol]
    Dispersion sSAPT0             -23.35674502 [mEh]     -14.65657878 [kcal/mol]     -61.32312561 [kJ/mol]
  Total sSAPT0                    -90.84248761 [mEh]     -57.00452160 [kcal/mol]    -238.50691837 [kJ/mol]
  --------------------------------------------------------------------------------------------------------

*** Psi4 exiting successfully. Buy a developer a beer!
