                               Psi4 1.8.2 release

  ==> Input File <==

--------------------------------------------------------------------------
MEMORY 60 GB

molecule dimer {
-1 1
Cl     0.000000     0.000000     0.000000
--
0 1
O     -2.452431     1.179516    -1.383822
H     -1.837991     0.632158    -0.895002
H     -2.120427     2.027958    -1.619128
O     -1.167744    -2.919915    -0.939325
H     -1.764740    -2.860149    -0.192311
H     -0.702783    -2.092863    -0.831785
O      1.116976     2.890657    -0.274401
H      1.074806     1.920461    -0.397918
H      1.908259     3.184212    -0.701728
O      1.222605    -0.362937    -3.063516
H      2.064077    -0.758243    -2.722188
H      0.654956    -0.035259    -2.271002

units ang
no_reorient
no_com
symmetry c1
}

set {
basis        aug-cc-pVTZ
scf_type     df
}

energy("sapt2+")
--------------------------------------------------------------------------

  //              Dimer HF             //
    Molecular point group: c1
  Charge       = -1
  Multiplicity = 1
  Basis Set: AUG-CC-PVTZ
    Blend: AUG-CC-PVTZ
  Basis Set: (AUG-CC-PVTZ AUX)
    Blend: AUG-CC-PVTZ-JKFIT
  @DF-RHF Final Energy:  -763.85727158293469
    Total Energy =                       -763.8572715829346862
 Dipole X            :         22.0720604          -20.7276405            1.3444199
 Dipole Y            :        -15.5283056           15.7165555            0.1882499
 Dipole Z            :        105.5572612         -103.7829538            1.7743074
 Magnitude           :                                                    2.2340702
  //            Monomer A HF           //
    Molecular point group: c1
  Multiplicity = 1
  Basis Set: AUG-CC-PVTZ
    Blend: AUG-CC-PVTZ
  Basis Set: (AUG-CC-PVTZ AUX)
    Blend: AUG-CC-PVTZ-JKFIT
  @DF-RHF Final Energy:  -459.57356892735373
    Total Energy =                       -459.5735689273537332
  //            Monomer B HF           //
    Molecular point group: c1

    Geometry (in Angstrom), charge = 0, multiplicity = 1:

       Center              X                  Y                   Z               Mass
    ------------   -----------------  -----------------  -----------------  -----------------
      Gh(CL)          0.000000000000     0.000000000000     0.000000000000    34.968852682000
         O           -2.452431000000     1.179516000000    -1.383822000000    15.994914619570
         H           -1.837991000000     0.632158000000    -0.895002000000     1.007825032230
         H           -2.120427000000     2.027958000000    -1.619128000000     1.007825032230
         O           -1.167744000000    -2.919915000000    -0.939325000000    15.994914619570
         H           -1.764740000000    -2.860149000000    -0.192311000000     1.007825032230
         H           -0.702783000000    -2.092863000000    -0.831785000000     1.007825032230
         O            1.116976000000     2.890657000000    -0.274401000000    15.994914619570
         H            1.074806000000     1.920461000000    -0.397918000000     1.007825032230
         H            1.908259000000     3.184212000000    -0.701728000000     1.007825032230
         O            1.222605000000    -0.362937000000    -3.063516000000    15.994914619570
         H            2.064077000000    -0.758243000000    -2.722188000000     1.007825032230
         H            0.654956000000    -0.035259000000    -2.271002000000     1.007825032230

  Charge       = 0
  Multiplicity = 1
  Basis Set: AUG-CC-PVTZ
    Blend: AUG-CC-PVTZ
  Basis Set: (AUG-CC-PVTZ AUX)
    Blend: AUG-CC-PVTZ-JKFIT

    Orbital Energies [Eh]
    ---------------------

    Doubly Occupied:

       1A    -20.591973     2A    -20.587293     3A    -20.578466
       4A    -20.571010     5A     -1.369721     6A     -1.366815
       7A     -1.360670     8A     -1.343353     9A     -0.751028
      10A     -0.739702    11A     -0.717698    12A     -0.714993
      13A     -0.603554    14A     -0.599741    15A     -0.582468
      16A     -0.576019    17A     -0.529433    18A     -0.522210
      19A     -0.520388    20A     -0.517334

  @DF-RHF Final Energy:  -304.22335639472982

   => Energetics <=

    Nuclear Repulsion Energy =            108.9740636302285424
    One-Electron Energy =                -636.1070911290269123
    Two-Electron Energy =                 222.9096711040685648
    Total Energy =                       -304.2233563947297625
 Dipole X            :         21.9638349          -20.7276405            1.2361944
 Dipole Y            :        -15.3987476           15.7165555            0.3178079
 Dipole Z            :        104.7982669         -103.7829538            1.0153131
 Magnitude           :                                                    1.6309626

    SAPT Results
  --------------------------------------------------------------------------------------------------------
    Electrostatics                -95.86940666 [mEh]     -60.15896093 [kcal/mol]    -251.70509251 [kJ/mol]
      Elst10,r                    -95.56240464 [mEh]     -59.96631425 [kcal/mol]    -250.89905882 [kJ/mol]
      Elst12,r                     -0.30700202 [mEh]      -0.19264668 [kcal/mol]      -0.80603369 [kJ/mol]

    Exchange                       75.15713794 [mEh]      47.16181608 [kcal/mol]     197.32503848 [kJ/mol]
      Exch10                       66.32821697 [mEh]      41.62158453 [kcal/mol]     174.14470965 [kJ/mol]
      Exch10(S^2)                  65.78067235 [mEh]      41.27799509 [kcal/mol]     172.70713147 [kJ/mol]
      Exch11(S^2)                   2.91435738 [mEh]       1.82878687 [kcal/mol]       7.65164426 [kJ/mol]
      Exch12(S^2)                   5.91456359 [mEh]       3.71144469 [kcal/mol]      15.52868456 [kJ/mol]

    Induction                     -34.17195658 [mEh]     -21.44322649 [kcal/mol]     -89.71845964 [kJ/mol]
      Ind20,r                     -52.22022771 [mEh]     -32.76868761 [kcal/mol]    -137.10418897 [kJ/mol]
      Ind22                        -7.07146914 [mEh]      -4.43741388 [kcal/mol]     -18.56613967 [kJ/mol]
      Exch-Ind20,r                 29.62410165 [mEh]      18.58940444 [kcal/mol]      77.77806817 [kJ/mol]
      Exch-Ind22                    4.01158574 [mEh]       2.51730805 [kcal/mol]      10.53241690 [kJ/mol]
      delta HF,r (2)               -8.51594711 [mEh]      -5.34383749 [kcal/mol]     -22.35861607 [kJ/mol]

    Dispersion                    -24.69545966 [mEh]     -15.49663489 [kcal/mol]     -64.83792039 [kJ/mol]
      Disp20                      -28.07304713 [mEh]     -17.61610303 [kcal/mol]     -73.70577508 [kJ/mol]
      Disp21                        1.80479828 [mEh]       1.13252802 [kcal/mol]       4.73849724 [kJ/mol]
      Disp22 (SDQ)                 -0.02396523 [mEh]      -0.01503841 [kcal/mol]      -0.06292070 [kJ/mol]
      Disp22 (T)                   -4.48187296 [mEh]      -2.81241774 [kcal/mol]     -11.76715584 [kJ/mol]
      Est. Disp22 (T)              -5.12808267 [mEh]      -3.21792046 [kcal/mol]     -13.46377918 [kJ/mol]
      Exch-Disp20                   6.72483708 [mEh]       4.21989898 [kcal/mol]      17.65605733 [kJ/mol]

  Total HF                        -60.34626085 [mEh]     -37.86785039 [kcal/mol]    -158.43908604 [kJ/mol]
  Total SAPT0                     -81.69447089 [mEh]     -51.26405444 [kcal/mol]    -214.48880378 [kJ/mol]
  Total SAPT2                     -76.23243534 [mEh]     -47.83657539 [kcal/mol]    -200.14823142 [kJ/mol]
  Total SAPT2+                    -79.57968496 [mEh]     -49.93700623 [kcal/mol]    -208.93643407 [kJ/mol]

  Special recipe for scaled SAPT0 (see Manual):
    Electrostatics sSAPT0         -95.56240464 [mEh]     -59.96631425 [kcal/mol]    -250.89905882 [kJ/mol]
    Exchange sSAPT0                66.32821697 [mEh]      41.62158453 [kcal/mol]     174.14470965 [kJ/mol]
    Induction sSAPT0              -30.36614397 [mEh]     -19.05504303 [kcal/mol]     -79.72630002 [kJ/mol]
    Dispersion sSAPT0             -21.17887993 [mEh]     -13.28994780 [kcal/mol]     -55.60514160 [kJ/mol]
  Total sSAPT0                    -80.77921158 [mEh]     -50.68972055 [kcal/mol]    -212.08579079 [kJ/mol]
  --------------------------------------------------------------------------------------------------------

*** Psi4 exiting successfully. Buy a developer a beer!
