                               Psi4 1.8.2 release

  ==> Input File <==

--------------------------------------------------------------------------
MEMORY 60 GB

molecule dimer {
-1 1
Cl     0.000000     0.000000     0.000000
--
0 1
O      0.523611    -3.326317    -0.270829
H      1.371760    -3.541864    -0.752050
H      0.520142    -2.413760    -0.485172
O     -0.566034    -1.015128    -2.856991
H     -1.423681    -1.463563    -2.743114
H     -0.308453    -0.737514    -1.960884
O      1.763372     1.458735    -2.322450
H      1.440294     0.911291    -1.581146
H      2.304948     0.879717    -2.772692
O     -2.397826    -1.807276     1.763323
H     -1.510550    -2.113811     1.658959
H     -2.434657    -1.289060     0.981632

units ang
no_reorient
no_com
symmetry c1
}

set {
basis        aug-cc-pVTZ
scf_type     df
}

energy("sapt2+")
--------------------------------------------------------------------------

  //              Dimer HF             //
    Molecular point group: c1
  Charge       = -1
  Multiplicity = 1
  Basis Set: AUG-CC-PVTZ
    Blend: AUG-CC-PVTZ
  Basis Set: (AUG-CC-PVTZ AUX)
    Blend: AUG-CC-PVTZ-JKFIT
  @DF-RHF Final Energy:  -763.85813685523055
    Total Energy =                       -763.8581368552305548
 Dipole X            :         11.1042471          -10.3088585            0.7953885
 Dipole Y            :         89.5847650          -89.3622232            0.2225418
 Dipole Z            :         70.6190831          -70.2034068            0.4156763
 Magnitude           :                                                    0.9246376
  //            Monomer A HF           //
    Molecular point group: c1
  Multiplicity = 1
  Basis Set: AUG-CC-PVTZ
    Blend: AUG-CC-PVTZ
  Basis Set: (AUG-CC-PVTZ AUX)
    Blend: AUG-CC-PVTZ-JKFIT
  @DF-RHF Final Energy:  -459.57355663814673
    Total Energy =                       -459.5735566381467834
  //            Monomer B HF           //
    Molecular point group: c1

    Geometry (in Angstrom), charge = 0, multiplicity = 1:

       Center              X                  Y                   Z               Mass
    ------------   -----------------  -----------------  -----------------  -----------------
      Gh(CL)          0.000000000000     0.000000000000     0.000000000000    34.968852682000
         O            0.523611000000    -3.326317000000    -0.270829000000    15.994914619570
         H            1.371760000000    -3.541864000000    -0.752050000000     1.007825032230
         H            0.520142000000    -2.413760000000    -0.485172000000     1.007825032230
         O           -0.566034000000    -1.015128000000    -2.856991000000    15.994914619570
         H           -1.423681000000    -1.463563000000    -2.743114000000     1.007825032230
         H           -0.308453000000    -0.737514000000    -1.960884000000     1.007825032230
         O            1.763372000000     1.458735000000    -2.322450000000    15.994914619570
         H            1.440294000000     0.911291000000    -1.581146000000     1.007825032230
         H            2.304948000000     0.879717000000    -2.772692000000     1.007825032230
         O           -2.397826000000    -1.807276000000     1.763323000000    15.994914619570
         H           -1.510550000000    -2.113811000000     1.658959000000     1.007825032230
         H           -2.434657000000    -1.289060000000     0.981632000000     1.007825032230

  Charge       = 0
  Multiplicity = 1
  Basis Set: AUG-CC-PVTZ
    Blend: AUG-CC-PVTZ
  Basis Set: (AUG-CC-PVTZ AUX)
    Blend: AUG-CC-PVTZ-JKFIT

    Orbital Energies [Eh]
    ---------------------

    Doubly Occupied:

       1A    -20.596212     2A    -20.592937     3A    -20.576123
       4A    -20.571066     5A     -1.379712     6A     -1.373790
       7A     -1.371458     8A     -1.367898     9A     -0.736618
      10A     -0.729612    11A     -0.719804    12A     -0.714222
      13A     -0.623928    14A     -0.606207    15A     -0.603090
      16A     -0.601046    17A     -0.538531    18A     -0.529613
      19A     -0.521392    20A     -0.517252

  @DF-RHF Final Energy:  -304.22584772933072

   => Energetics <=

    Nuclear Repulsion Energy =            110.6551372686268877
    One-Electron Energy =                -639.2209458227397363
    Two-Electron Energy =                 224.3399608247821391
    Total Energy =                       -304.2258477293307806
 Dipole X            :         11.1613841          -10.3088585            0.8525256
 Dipole Y            :         89.0459218          -89.3622232           -0.3163014
 Dipole Z            :         69.9067356          -70.2034068           -0.2966712
 Magnitude           :                                                    0.9564833

    SAPT Results
  --------------------------------------------------------------------------------------------------------
    Electrostatics                -81.56521223 [mEh]     -51.18294341 [kcal/mol]    -214.14943521 [kJ/mol]
      Elst10,r                    -81.87376469 [mEh]     -51.37656300 [kcal/mol]    -214.95953958 [kJ/mol]
      Elst12,r                      0.30855246 [mEh]       0.19361959 [kcal/mol]       0.81010437 [kJ/mol]

    Exchange                       57.16216803 [mEh]      35.86980198 [kcal/mol]     150.07925148 [kJ/mol]
      Exch10                       50.55748101 [mEh]      31.72529830 [kcal/mol]     132.73864809 [kJ/mol]
      Exch10(S^2)                  49.94089826 [mEh]      31.33838679 [kcal/mol]     131.11981031 [kJ/mol]
      Exch11(S^2)                   2.08093681 [mEh]       1.30580756 [kcal/mol]       5.46349883 [kJ/mol]
      Exch12(S^2)                   4.52375022 [mEh]       2.83869612 [kcal/mol]      11.87710456 [kJ/mol]

    Induction                     -29.94221228 [mEh]     -18.78902187 [kcal/mol]     -78.61326750 [kJ/mol]
      Ind20,r                     -43.50939954 [mEh]     -27.30256041 [kcal/mol]    -114.23391276 [kJ/mol]
      Ind22                        -5.52564819 [mEh]      -3.46739659 [kcal/mol]     -14.50758733 [kJ/mol]
      Exch-Ind20,r                 23.61940719 [mEh]      14.82140178 [kcal/mol]      62.01274503 [kJ/mol]
      Exch-Ind22                    2.99963999 [mEh]       1.88230251 [kcal/mol]       7.87555370 [kJ/mol]
      delta HF,r (2)               -7.52621172 [mEh]      -4.72276915 [kcal/mol]     -19.76006614 [kJ/mol]

    Dispersion                    -20.09886565 [mEh]     -12.61222861 [kcal/mol]     -52.76956448 [kJ/mol]
      Disp20                      -22.55541286 [mEh]     -14.15373525 [kcal/mol]     -59.21922830 [kJ/mol]
      Disp21                        1.50138346 [mEh]       0.94213234 [kcal/mol]       3.94188173 [kJ/mol]
      Disp22 (SDQ)                 -0.07270347 [mEh]      -0.04562211 [kcal/mol]      -0.19088293 [kJ/mol]
      Disp22 (T)                   -3.60258119 [mEh]      -2.26065383 [kcal/mol]      -9.45857562 [kJ/mol]
      Est. Disp22 (T)              -4.14403297 [mEh]      -2.60041995 [kcal/mol]     -10.88015706 [kJ/mol]
      Exch-Disp20                   5.17190019 [mEh]       3.24541637 [kcal/mol]      13.57882208 [kJ/mol]

  Total HF                        -58.73248775 [mEh]     -36.85519248 [kcal/mol]    -154.20212535 [kJ/mol]
  Total SAPT0                     -76.11600042 [mEh]     -47.76351137 [kcal/mol]    -199.84253157 [kJ/mol]
  Total SAPT2                     -71.72876915 [mEh]     -45.01048218 [kcal/mol]    -188.32385745 [kJ/mol]
  Total SAPT2+                    -74.44412212 [mEh]     -46.71439190 [kcal/mol]    -195.45301571 [kJ/mol]

  Special recipe for scaled SAPT0 (see Manual):
    Electrostatics sSAPT0         -81.87376469 [mEh]     -51.37656300 [kcal/mol]    -214.95953958 [kJ/mol]
    Exchange sSAPT0                50.55748101 [mEh]      31.72529830 [kcal/mol]     132.73864809 [kJ/mol]
    Induction sSAPT0              -26.53052549 [mEh]     -16.64815609 [kcal/mol]     -69.65588507 [kJ/mol]
    Dispersion sSAPT0             -17.18957718 [mEh]     -10.78662253 [kcal/mol]     -45.13122867 [kJ/mol]
  Total sSAPT0                    -75.03638635 [mEh]     -47.08604331 [kcal/mol]    -197.00800523 [kJ/mol]
  --------------------------------------------------------------------------------------------------------

*** Psi4 exiting successfully. Buy a developer a beer!
