                               Psi4 1.8.2 release

  ==> Input File <==

--------------------------------------------------------------------------
MEMORY 60 GB

molecule dimer {
-1 1
Cl     0.000000     0.000000     0.000000
--
0 1
O      2.710010     1.677585    -1.071771
H      3.152698     1.550298    -0.212812
H      1.765317     1.467364    -1.015440
O     -3.102038    -0.017194    -1.525341
H     -3.358242     0.887782    -1.519567
H     -2.125200    -0.019232    -1.246653
O     -1.292965     2.960221    -0.132286
H     -0.950528     3.448108    -0.917646
H     -0.726725     2.174558    -0.058260

units ang
no_reorient
no_com
symmetry c1
}

set {
basis        aug-cc-pVTZ
scf_type     df
}

energy("sapt2+")
--------------------------------------------------------------------------

  //              Dimer HF             //
    Molecular point group: c1
  Charge       = -1
  Multiplicity = 1
  Basis Set: AUG-CC-PVTZ
    Blend: AUG-CC-PVTZ
  Basis Set: (AUG-CC-PVTZ AUX)
    Blend: AUG-CC-PVTZ-JKFIT
  @DF-RHF Final Energy:  -687.79316252393073
    Total Energy =                       -687.7931625239307323
 Dipole X            :         30.6410581          -29.7114533            0.9296048
 Dipole Y            :        -88.2500353           87.8227049           -0.4273304
 Dipole Z            :         51.3469617          -50.6551708            0.6917909
 Magnitude           :                                                    1.2350510
  //            Monomer A HF           //
    Molecular point group: c1
  Multiplicity = 1
  Basis Set: AUG-CC-PVTZ
    Blend: AUG-CC-PVTZ
  Basis Set: (AUG-CC-PVTZ AUX)
    Blend: AUG-CC-PVTZ-JKFIT
  @DF-RHF Final Energy:  -459.57353859793130
    Total Energy =                       -459.5735385979313037
  //            Monomer B HF           //
    Molecular point group: c1

    Geometry (in Angstrom), charge = 0, multiplicity = 1:

       Center              X                  Y                   Z               Mass
    ------------   -----------------  -----------------  -----------------  -----------------
      Gh(CL)          0.000000000000     0.000000000000     0.000000000000    34.968852682000
         O            2.710010000000     1.677585000000    -1.071771000000    15.994914619570
         H            3.152698000000     1.550298000000    -0.212812000000     1.007825032230
         H            1.765317000000     1.467364000000    -1.015440000000     1.007825032230
         O           -3.102038000000    -0.017194000000    -1.525341000000    15.994914619570
         H           -3.358242000000     0.887782000000    -1.519567000000     1.007825032230
         H           -2.125200000000    -0.019232000000    -1.246653000000     1.007825032230
         O           -1.292965000000     2.960221000000    -0.132286000000    15.994914619570
         H           -0.950528000000     3.448108000000    -0.917646000000     1.007825032230
         H           -0.726725000000     2.174558000000    -0.058260000000     1.007825032230

  Charge       = 0
  Multiplicity = 1
  Basis Set: AUG-CC-PVTZ
    Blend: AUG-CC-PVTZ
  Basis Set: (AUG-CC-PVTZ AUX)
    Blend: AUG-CC-PVTZ-JKFIT

    Orbital Energies [Eh]
    ---------------------

    Doubly Occupied:

       1A    -20.592135     2A    -20.582986     3A    -20.570042
       4A     -1.364040     5A     -1.357728     6A     -1.343519
       7A     -0.738486     8A     -0.728383     9A     -0.708182
      10A     -0.600929    11A     -0.584724    12A     -0.579662
      13A     -0.529500    14A     -0.522996    15A     -0.508381

  @DF-RHF Final Energy:  -228.17054722837054

   => Energetics <=

    Nuclear Repulsion Energy =             63.2739606685305418
    One-Electron Energy =                -440.2656246638133553
    Two-Electron Energy =                 148.8211167669122688
    Total Energy =                       -228.1705472283705376
 Dipole X            :         30.4472754          -29.7114533            0.7358221
 Dipole Y            :        -87.5787707           87.8227049            0.2439342
 Dipole Z            :         51.0048904          -50.6551708            0.3497196
 Magnitude           :                                                    0.8504362

    SAPT Results
  --------------------------------------------------------------------------------------------------------
    Electrostatics                -61.00245369 [mEh]     -38.27961761 [kcal/mol]    -160.16192010 [kJ/mol]
      Elst10,r                    -61.30295620 [mEh]     -38.46818579 [kcal/mol]    -160.95088933 [kJ/mol]
      Elst12,r                      0.30050251 [mEh]       0.18856817 [kcal/mol]       0.78896923 [kJ/mol]

    Exchange                       36.87187830 [mEh]      23.13745295 [kcal/mol]      96.80710315 [kJ/mol]
      Exch10                       32.32736126 [mEh]      20.28572546 [kcal/mol]      84.87547531 [kJ/mol]
      Exch10(S^2)                  32.09857071 [mEh]      20.14215721 [kcal/mol]      84.27478578 [kJ/mol]
      Exch11(S^2)                   1.40299070 [mEh]       0.88038995 [kcal/mol]       3.68355157 [kJ/mol]
      Exch12(S^2)                   3.14152634 [mEh]       1.97133754 [kcal/mol]       8.24807627 [kJ/mol]

    Induction                     -21.89830212 [mEh]     -13.74139204 [kcal/mol]     -57.49398430 [kJ/mol]
      Ind20,r                     -29.78333397 [mEh]     -18.68932423 [kcal/mol]     -78.19613256 [kJ/mol]
      Ind22                        -3.66521017 [mEh]      -2.29995411 [kcal/mol]      -9.62300798 [kJ/mol]
      Exch-Ind20,r                 15.17937176 [mEh]       9.52519959 [kcal/mol]      39.85343508 [kJ/mol]
      Exch-Ind22                    1.86801074 [mEh]       1.17219444 [kcal/mol]       4.90446153 [kJ/mol]
      delta HF,r (2)               -5.49714049 [mEh]      -3.44950774 [kcal/mol]     -14.43274037 [kJ/mol]

    Dispersion                    -14.13389926 [mEh]      -8.86915569 [kcal/mol]     -37.10854740 [kJ/mol]
      Disp20                      -15.51802543 [mEh]      -9.73770797 [kcal/mol]     -40.74257014 [kJ/mol]
      Disp21                        0.85917493 [mEh]       0.53914041 [kcal/mol]       2.25576346 [kJ/mol]
      Disp22 (SDQ)                 -0.02651175 [mEh]      -0.01663637 [kcal/mol]      -0.06960659 [kJ/mol]
      Disp22 (T)                   -2.51460720 [mEh]      -1.57793984 [kcal/mol]      -6.60210029 [kJ/mol]
      Est. Disp22 (T)              -2.90337284 [mEh]      -1.82189397 [kcal/mol]      -7.62280435 [kJ/mol]
      Exch-Disp20                   3.45483583 [mEh]       2.16794221 [kcal/mol]       9.07067022 [kJ/mol]

  Total HF                        -49.07669763 [mEh]     -30.79609270 [kcal/mol]    -128.85085187 [kJ/mol]
  Total SAPT0                     -61.13988723 [mEh]     -38.36585846 [kcal/mol]    -160.52275180 [kJ/mol]
  Total SAPT2                     -58.09206711 [mEh]     -36.45332246 [kcal/mol]    -152.52070118 [kJ/mol]
  Total SAPT2+                    -60.16277677 [mEh]     -37.75271239 [kcal/mol]    -157.95734866 [kJ/mol]

  Special recipe for scaled SAPT0 (see Manual):
    Electrostatics sSAPT0         -61.30295620 [mEh]     -38.46818579 [kcal/mol]    -160.95088933 [kJ/mol]
    Exchange sSAPT0                32.32736126 [mEh]      20.28572546 [kcal/mol]      84.87547531 [kJ/mol]
    Induction sSAPT0              -19.77419938 [mEh]     -12.40849745 [kcal/mol]     -51.91715332 [kJ/mol]
    Dispersion sSAPT0             -11.98878617 [mEh]      -7.52307690 [kcal/mol]     -31.47655376 [kJ/mol]
  Total sSAPT0                    -60.73858049 [mEh]     -38.11403468 [kcal/mol]    -159.46912110 [kJ/mol]
  --------------------------------------------------------------------------------------------------------

*** Psi4 exiting successfully. Buy a developer a beer!
