                               Psi4 1.8.2 release

  ==> Input File <==

--------------------------------------------------------------------------
MEMORY 60 GB

molecule dimer {
-1 1
Cl     0.000000     0.000000     0.000000
--
0 1
O     -2.352563    -2.000689    -0.906334
H     -1.879597    -2.743087    -1.222228
H     -1.947468    -1.507597    -0.165024
O     -2.041171     2.009674     1.692703
H     -2.902501     1.850932     1.214944
H     -1.359904     1.646238     1.074740
O      2.186425    -0.135659    -2.521759
H      2.037414    -0.257688    -1.583007
H      2.794119     0.578731    -2.754986
O      0.632001     3.009939    -1.372366
H      0.410937     2.899813    -2.278973
H      0.580960     2.129556    -0.959031
O      2.420754    -1.652381     1.758642
H      1.510958    -1.626298     1.492702
H      2.689538    -2.613340     1.613522
O      1.643151     1.143126     2.627037
H      2.423544     1.465652     2.192753
H      1.056724     0.905893     1.868423

units ang
no_reorient
no_com
symmetry c1
}

set {
basis        aug-cc-pVTZ
scf_type     df
}

energy("sapt2+")
--------------------------------------------------------------------------

  //              Dimer HF             //
    Molecular point group: c1
  Charge       = -1
  Multiplicity = 1
  Basis Set: AUG-CC-PVTZ
    Blend: AUG-CC-PVTZ
  Basis Set: (AUG-CC-PVTZ AUX)
    Blend: AUG-CC-PVTZ-JKFIT
  @DF-RHF Final Energy:  -915.98047383279516
    Total Energy =                       -915.9804738327951554
 Dipole X            :        -47.6689209           47.8544795            0.1855587
 Dipole Y            :        -42.6423793           41.0465239           -1.5958555
 Dipole Z            :        -21.7177234           20.2526087           -1.4651146
 Magnitude           :                                                    2.1743385
  //            Monomer A HF           //
    Molecular point group: c1
  Multiplicity = 1
  Basis Set: AUG-CC-PVTZ
    Blend: AUG-CC-PVTZ
  Basis Set: (AUG-CC-PVTZ AUX)
    Blend: AUG-CC-PVTZ-JKFIT
  @DF-RHF Final Energy:  -459.57357948781106
    Total Energy =                       -459.5735794878110596
  //            Monomer B HF           //
    Molecular point group: c1

    Geometry (in Angstrom), charge = 0, multiplicity = 1:

       Center              X                  Y                   Z               Mass
    ------------   -----------------  -----------------  -----------------  -----------------
      Gh(CL)          0.000000000000     0.000000000000     0.000000000000    34.968852682000
         O           -2.352563000000    -2.000689000000    -0.906334000000    15.994914619570
         H           -1.879597000000    -2.743087000000    -1.222228000000     1.007825032230
         H           -1.947468000000    -1.507597000000    -0.165024000000     1.007825032230
         O           -2.041171000000     2.009674000000     1.692703000000    15.994914619570
         H           -2.902501000000     1.850932000000     1.214944000000     1.007825032230
         H           -1.359904000000     1.646238000000     1.074740000000     1.007825032230
         O            2.186425000000    -0.135659000000    -2.521759000000    15.994914619570
         H            2.037414000000    -0.257688000000    -1.583007000000     1.007825032230
         H            2.794119000000     0.578731000000    -2.754986000000     1.007825032230
         O            0.632001000000     3.009939000000    -1.372366000000    15.994914619570
         H            0.410937000000     2.899813000000    -2.278973000000     1.007825032230
         H            0.580960000000     2.129556000000    -0.959031000000     1.007825032230
         O            2.420754000000    -1.652381000000     1.758642000000    15.994914619570
         H            1.510958000000    -1.626298000000     1.492702000000     1.007825032230
         H            2.689538000000    -2.613340000000     1.613522000000     1.007825032230
         O            1.643151000000     1.143126000000     2.627037000000    15.994914619570
         H            2.423544000000     1.465652000000     2.192753000000     1.007825032230
         H            1.056724000000     0.905893000000     1.868423000000     1.007825032230

  Charge       = 0
  Multiplicity = 1
  Basis Set: AUG-CC-PVTZ
    Blend: AUG-CC-PVTZ
  Basis Set: (AUG-CC-PVTZ AUX)
    Blend: AUG-CC-PVTZ-JKFIT

    Orbital Energies [Eh]
    ---------------------

    Doubly Occupied:

       1A    -20.586534     2A    -20.582914     3A    -20.581967
       4A    -20.581004     5A    -20.580023     6A    -20.569358
       7A     -1.367439     8A     -1.364720     9A     -1.362791
      10A     -1.360504    11A     -1.348714    12A     -1.345009
      13A     -0.758340    14A     -0.753695    15A     -0.738394
      16A     -0.723173    17A     -0.709674    18A     -0.703683
      19A     -0.597802    20A     -0.595119    21A     -0.587307
      22A     -0.584888    23A     -0.582163    24A     -0.580105
      25A     -0.528911    26A     -0.525179    27A     -0.524563
      28A     -0.521808    29A     -0.515851    30A     -0.507249

  @DF-RHF Final Energy:  -456.33586839882770

   => Energetics <=

    Nuclear Repulsion Energy =            223.0716593910844665
    One-Electron Energy =               -1073.4772843633404591
    Two-Electron Energy =                 394.0697565734282648
    Total Energy =                       -456.3358683988276994
 Dipole X            :        -47.4683620           47.8544795            0.3861176
 Dipole Y            :        -42.3255988           41.0465239           -1.2790750
 Dipole Z            :        -21.5083894           20.2526087           -1.2557807
 Magnitude           :                                                    1.8336043

    SAPT Results
  --------------------------------------------------------------------------------------------------------
    Electrostatics               -100.04237606 [mEh]     -62.77753875 [kcal/mol]    -262.66122215 [kJ/mol]
      Elst10,r                    -99.68919932 [mEh]     -62.55591701 [kcal/mol]    -261.73395675 [kJ/mol]
      Elst12,r                     -0.35317674 [mEh]      -0.22162175 [kcal/mol]      -0.92726539 [kJ/mol]

    Exchange                       67.70444204 [mEh]      42.48517879 [kcal/mol]     177.75798807 [kJ/mol]
      Exch10                       58.50239057 [mEh]      36.71080432 [kcal/mol]     153.59800528 [kJ/mol]
      Exch10(S^2)                  58.32519654 [mEh]      36.59961339 [kcal/mol]     153.13278242 [kJ/mol]
      Exch11(S^2)                   2.83105244 [mEh]       1.77651223 [kcal/mol]       7.43292717 [kJ/mol]
      Exch12(S^2)                   6.37099902 [mEh]       3.99786224 [kcal/mol]      16.72705562 [kJ/mol]

    Induction                     -33.33733590 [mEh]     -20.91949411 [kcal/mol]     -87.52716334 [kJ/mol]
      Ind20,r                     -49.31131116 [mEh]     -30.94331492 [kcal/mol]    -129.46682962 [kJ/mol]
      Ind22                        -7.28631016 [mEh]      -4.57222865 [kcal/mol]     -19.13020468 [kJ/mol]
      Exch-Ind20,r                 25.63667332 [mEh]      16.08725538 [kcal/mol]      67.30907652 [kJ/mol]
      Exch-Ind22                    3.78811167 [mEh]       2.37707596 [kcal/mol]       9.94568582 [kJ/mol]
      delta HF,r (2)               -6.16449956 [mEh]      -3.86828188 [kcal/mol]     -16.18489137 [kJ/mol]

    Dispersion                    -27.44233834 [mEh]     -17.22032729 [kcal/mol]     -72.04984938 [kJ/mol]
      Disp20                      -30.19503803 [mEh]     -18.94767242 [kcal/mol]     -79.27706142 [kJ/mol]
      Disp21                        1.85133582 [mEh]       1.16173077 [kcal/mol]       4.86068153 [kJ/mol]
      Disp22 (SDQ)                 -0.14119901 [mEh]      -0.08860372 [kcal/mol]      -0.37071796 [kJ/mol]
      Disp22 (T)                   -4.93872784 [mEh]      -3.09909851 [kcal/mol]     -12.96662815 [kJ/mol]
      Est. Disp22 (T)              -5.70307255 [mEh]      -3.57873205 [kcal/mol]     -14.97341491 [kJ/mol]
      Exch-Disp20                   6.74563543 [mEh]       4.23295014 [kcal/mol]      17.71066338 [kJ/mol]

  Total HF                        -71.02594616 [mEh]     -44.56945410 [kcal/mol]    -186.47859594 [kJ/mol]
  Total SAPT0                     -94.47534875 [mEh]     -59.28417638 [kcal/mol]    -248.04499398 [kJ/mol]
  Total SAPT2                     -89.12467252 [mEh]     -55.92657635 [kcal/mol]    -233.99679545 [kJ/mol]
  Total SAPT2+                    -93.11760825 [mEh]     -58.43218136 [kcal/mol]    -244.48024679 [kJ/mol]

  Special recipe for scaled SAPT0 (see Manual):
    Electrostatics sSAPT0         -99.68919932 [mEh]     -62.55591701 [kcal/mol]    -261.73395675 [kJ/mol]
    Exchange sSAPT0                58.50239057 [mEh]      36.71080432 [kcal/mol]     153.59800528 [kJ/mol]
    Induction sSAPT0              -29.60477145 [mEh]     -18.57727455 [kcal/mol]     -77.72731672 [kJ/mol]
    Dispersion sSAPT0             -23.38773519 [mEh]     -14.67602540 [kcal/mol]     -61.40449027 [kJ/mol]
  Total sSAPT0                    -94.17931538 [mEh]     -59.09841264 [kcal/mol]    -247.26775847 [kJ/mol]
  --------------------------------------------------------------------------------------------------------

*** Psi4 exiting successfully. Buy a developer a beer!
