                               Psi4 1.8.2 release

  ==> Input File <==

--------------------------------------------------------------------------
MEMORY 60 GB

molecule dimer {
-1 1
Cl     0.000000     0.000000     0.000000
--
0 1
O     -3.036540    -1.130948     0.571455
H     -2.816521    -0.349188     0.044649
H     -4.001200    -1.116491     0.759985
O      2.042900     1.983750     1.557742
H      1.377876     1.644053     0.979838
H      2.348539     2.811821     1.186573
O     -1.201565     2.176958     2.115980
H     -0.858161     1.779863     1.307099
H     -0.662453     1.807091     2.819899
O      0.655515    -1.917276     2.650823
H      0.870212    -1.423797     1.789194
H     -0.239017    -1.790514     2.917007
O     -0.319376     2.472691    -2.034529
H     -0.223367     1.847408    -1.233402
H     -0.065493     3.291772    -1.721202
O      2.365589    -1.192386    -1.524898
H      2.063632    -1.946725    -1.022722
H      1.713985    -0.498279    -1.350896

units ang
no_reorient
no_com
symmetry c1
}

set {
basis        aug-cc-pVTZ
scf_type     df
}

energy("sapt2+")
--------------------------------------------------------------------------

  //              Dimer HF             //
    Molecular point group: c1
  Charge       = -1
  Multiplicity = 1
  Basis Set: AUG-CC-PVTZ
    Blend: AUG-CC-PVTZ
  Basis Set: (AUG-CC-PVTZ AUX)
    Blend: AUG-CC-PVTZ-JKFIT
  @DF-RHF Final Energy:  -915.98413408924489
    Total Energy =                       -915.9841340892448898
 Dipole X            :         -7.9431756            6.7278332           -1.2153425
 Dipole Y            :        -47.2474428           47.6198247            0.3723819
 Dipole Z            :        -62.9716338           62.6795813           -0.2920525
 Magnitude           :                                                    1.3042317
  //            Monomer A HF           //
    Molecular point group: c1
  Multiplicity = 1
  Basis Set: AUG-CC-PVTZ
    Blend: AUG-CC-PVTZ
  Basis Set: (AUG-CC-PVTZ AUX)
    Blend: AUG-CC-PVTZ-JKFIT
  @DF-RHF Final Energy:  -459.57359196723689
    Total Energy =                       -459.5735919672368937
  //            Monomer B HF           //
    Molecular point group: c1

    Geometry (in Angstrom), charge = 0, multiplicity = 1:

       Center              X                  Y                   Z               Mass
    ------------   -----------------  -----------------  -----------------  -----------------
      Gh(CL)          0.000000000000     0.000000000000     0.000000000000    34.968852682000
         O           -3.036540000000    -1.130948000000     0.571455000000    15.994914619570
         H           -2.816521000000    -0.349188000000     0.044649000000     1.007825032230
         H           -4.001200000000    -1.116491000000     0.759985000000     1.007825032230
         O            2.042900000000     1.983750000000     1.557742000000    15.994914619570
         H            1.377876000000     1.644053000000     0.979838000000     1.007825032230
         H            2.348539000000     2.811821000000     1.186573000000     1.007825032230
         O           -1.201565000000     2.176958000000     2.115980000000    15.994914619570
         H           -0.858161000000     1.779863000000     1.307099000000     1.007825032230
         H           -0.662453000000     1.807091000000     2.819899000000     1.007825032230
         O            0.655515000000    -1.917276000000     2.650823000000    15.994914619570
         H            0.870212000000    -1.423797000000     1.789194000000     1.007825032230
         H           -0.239017000000    -1.790514000000     2.917007000000     1.007825032230
         O           -0.319376000000     2.472691000000    -2.034529000000    15.994914619570
         H           -0.223367000000     1.847408000000    -1.233402000000     1.007825032230
         H           -0.065493000000     3.291772000000    -1.721202000000     1.007825032230
         O            2.365589000000    -1.192386000000    -1.524898000000    15.994914619570
         H            2.063632000000    -1.946725000000    -1.022722000000     1.007825032230
         H            1.713985000000    -0.498279000000    -1.350896000000     1.007825032230

  Charge       = 0
  Multiplicity = 1
  Basis Set: AUG-CC-PVTZ
    Blend: AUG-CC-PVTZ
  Basis Set: (AUG-CC-PVTZ AUX)
    Blend: AUG-CC-PVTZ-JKFIT

    Orbital Energies [Eh]
    ---------------------

    Doubly Occupied:

       1A    -20.600907     2A    -20.592662     3A    -20.588258
       4A    -20.584829     5A    -20.580368     6A    -20.573238
       7A     -1.383678     8A     -1.383005     9A     -1.370948
      10A     -1.363472    11A     -1.358267    12A     -1.344819
      13A     -0.756874    14A     -0.746449    15A     -0.736308
      16A     -0.731745    17A     -0.728719    18A     -0.725677
      19A     -0.614058    20A     -0.606754    21A     -0.603606
      22A     -0.594812    23A     -0.591308    24A     -0.571566
      25A     -0.541916    26A     -0.541075    27A     -0.527150
      28A     -0.522925    29A     -0.521608    30A     -0.512154

  @DF-RHF Final Energy:  -456.33834214269473

   => Energetics <=

    Nuclear Repulsion Energy =            228.2423211973768389
    One-Electron Energy =               -1083.3630043258781370
    Two-Electron Energy =                 398.7823409858065133
    Total Energy =                       -456.3383421426947280
 Dipole X            :         -7.7204725            6.7278332           -0.9926393
 Dipole Y            :        -46.6943490           47.6198247            0.9254757
 Dipole Z            :        -62.7672249           62.6795813           -0.0876436
 Magnitude           :                                                    1.3599704

    SAPT Results
  --------------------------------------------------------------------------------------------------------
    Electrostatics               -114.72642880 [mEh]     -71.99192096 [kcal/mol]    -301.21419731 [kJ/mol]
      Elst10,r                   -113.54052994 [mEh]     -71.24775820 [kcal/mol]    -298.10062030 [kJ/mol]
      Elst12,r                     -1.18589885 [mEh]      -0.74416276 [kcal/mol]      -3.11357701 [kJ/mol]

    Exchange                       90.22358167 [mEh]      56.61615225 [kcal/mol]     236.88198103 [kJ/mol]
      Exch10                       78.91680572 [mEh]      49.52104323 [kcal/mol]     207.19604486 [kJ/mol]
      Exch10(S^2)                  78.40016117 [mEh]      49.19684388 [kcal/mol]     205.83959480 [kJ/mol]
      Exch11(S^2)                   3.69790107 [mEh]       2.32046795 [kcal/mol]       9.70883792 [kJ/mol]
      Exch12(S^2)                   7.60887488 [mEh]       4.77464107 [kcal/mol]      19.97709825 [kJ/mol]

    Induction                     -41.64206868 [mEh]     -26.13079261 [kcal/mol]    -109.33123626 [kJ/mol]
      Ind20,r                     -64.05468614 [mEh]     -40.19492239 [kcal/mol]    -168.17555529 [kJ/mol]
      Ind22                        -8.87240221 [mEh]      -5.56751644 [kcal/mol]     -23.29448880 [kJ/mol]
      Exch-Ind20,r                 34.70137148 [mEh]      21.77543936 [kcal/mol]      91.10843828 [kJ/mol]
      Exch-Ind22                    4.80658861 [mEh]       3.01617989 [kcal/mol]      12.61969667 [kJ/mol]
      delta HF,r (2)               -8.22294043 [mEh]      -5.15997302 [kcal/mol]     -21.58932712 [kJ/mol]

    Dispersion                    -32.58269473 [mEh]     -20.44594962 [kcal/mol]     -85.54585322 [kJ/mol]
      Disp20                      -36.60866092 [mEh]     -22.97228155 [kcal/mol]     -96.11602600 [kJ/mol]
      Disp21                        2.48566742 [mEh]       1.55977986 [kcal/mol]       6.52611892 [kJ/mol]
      Disp22 (SDQ)                 -0.11226147 [mEh]      -0.07044513 [kcal/mol]      -0.29474244 [kJ/mol]
      Disp22 (T)                   -5.92530029 [mEh]      -3.71818207 [kcal/mol]     -15.55687377 [kJ/mol]
      Est. Disp22 (T)              -6.79583603 [mEh]      -4.26445149 [kcal/mol]     -17.84246504 [kJ/mol]
      Exch-Disp20                   8.44839627 [mEh]       5.30144869 [kcal/mol]      22.18126134 [kJ/mol]

  Total HF                        -72.19997931 [mEh]     -45.30617103 [kcal/mol]    -189.56101957 [kJ/mol]
  Total SAPT0                    -100.36024397 [mEh]     -62.97700388 [kcal/mol]    -263.49578423 [kJ/mol]
  Total SAPT2                     -94.30518047 [mEh]     -59.17739417 [kcal/mol]    -247.59821720 [kJ/mol]
  Total SAPT2+                    -98.72761054 [mEh]     -61.95251094 [kcal/mol]    -259.20930576 [kJ/mol]

  Special recipe for scaled SAPT0 (see Manual):
    Electrostatics sSAPT0        -113.54052994 [mEh]     -71.24775820 [kcal/mol]    -298.10062030 [kJ/mol]
    Exchange sSAPT0                78.91680572 [mEh]      49.52104323 [kcal/mol]     207.19604486 [kJ/mol]
    Induction sSAPT0              -36.88569484 [mEh]     -23.14612296 [kcal/mol]     -96.84337845 [kJ/mol]
    Dispersion sSAPT0             -27.99214085 [mEh]     -17.56533357 [kcal/mol]     -73.49335567 [kJ/mol]
  Total sSAPT0                    -99.50155991 [mEh]     -62.43817150 [kcal/mol]    -261.24130956 [kJ/mol]
  --------------------------------------------------------------------------------------------------------

*** Psi4 exiting successfully. Buy a developer a beer!
