                               Psi4 1.8.2 release

  ==> Input File <==

--------------------------------------------------------------------------
MEMORY 60 GB

molecule dimer {
-1 1
Cl     0.000000     0.000000     0.000000
--
0 1
O     -0.530148    -2.541396     2.339857
H      0.120897    -3.202570     2.327133
H     -0.132628    -1.880997     1.716211
O     -3.000928    -1.352034     0.154153
H     -2.071433    -1.106112     0.036891
H     -3.306104    -0.958508     1.007444
O      1.266958    -0.619388    -2.939972
H      1.004602    -0.223763    -2.097255
H      2.223231    -0.656263    -2.974201
O      1.279146    -2.624031    -0.164319
H      0.765925    -1.837237    -0.085508
H      0.822661    -3.176240    -0.835511
O      2.570326     0.754051     2.126946
H      2.553981     1.080305     3.025190
H      1.674012     0.429569     1.888366

units ang
no_reorient
no_com
symmetry c1
}

set {
basis        aug-cc-pVTZ
scf_type     df
}

energy("sapt2+")
--------------------------------------------------------------------------

  //              Dimer HF             //
    Molecular point group: c1
  Charge       = -1
  Multiplicity = 1
  Basis Set: AUG-CC-PVTZ
    Blend: AUG-CC-PVTZ
  Basis Set: (AUG-CC-PVTZ AUX)
    Blend: AUG-CC-PVTZ-JKFIT
  @DF-RHF Final Energy:  -839.92445099312317
    Total Energy =                       -839.9244509931231732
 Dipole X            :        -30.6641019           30.8743001            0.2101981
 Dipole Y            :        119.7883104         -118.2858950            1.5024153
 Dipole Z            :        -30.0126992           30.5041103            0.4914111
 Magnitude           :                                                    1.5946536
  //            Monomer A HF           //
    Molecular point group: c1
  Multiplicity = 1
  Basis Set: AUG-CC-PVTZ
    Blend: AUG-CC-PVTZ
  Basis Set: (AUG-CC-PVTZ AUX)
    Blend: AUG-CC-PVTZ-JKFIT
  @DF-RHF Final Energy:  -459.57357763120388
    Total Energy =                       -459.5735776312038752
  //            Monomer B HF           //
    Molecular point group: c1

    Geometry (in Angstrom), charge = 0, multiplicity = 1:

       Center              X                  Y                   Z               Mass
    ------------   -----------------  -----------------  -----------------  -----------------
      Gh(CL)          0.000000000000     0.000000000000     0.000000000000    34.968852682000
         O           -0.530148000000    -2.541396000000     2.339857000000    15.994914619570
         H            0.120897000000    -3.202570000000     2.327133000000     1.007825032230
         H           -0.132628000000    -1.880997000000     1.716211000000     1.007825032230
         O           -3.000928000000    -1.352034000000     0.154153000000    15.994914619570
         H           -2.071433000000    -1.106112000000     0.036891000000     1.007825032230
         H           -3.306104000000    -0.958508000000     1.007444000000     1.007825032230
         O            1.266958000000    -0.619388000000    -2.939972000000    15.994914619570
         H            1.004602000000    -0.223763000000    -2.097255000000     1.007825032230
         H            2.223231000000    -0.656263000000    -2.974201000000     1.007825032230
         O            1.279146000000    -2.624031000000    -0.164319000000    15.994914619570
         H            0.765925000000    -1.837237000000    -0.085508000000     1.007825032230
         H            0.822661000000    -3.176240000000    -0.835511000000     1.007825032230
         O            2.570326000000     0.754051000000     2.126946000000    15.994914619570
         H            2.553981000000     1.080305000000     3.025190000000     1.007825032230
         H            1.674012000000     0.429569000000     1.888366000000     1.007825032230

  Charge       = 0
  Multiplicity = 1
  Basis Set: AUG-CC-PVTZ
    Blend: AUG-CC-PVTZ
  Basis Set: (AUG-CC-PVTZ AUX)
    Blend: AUG-CC-PVTZ-JKFIT

    Orbital Energies [Eh]
    ---------------------

    Doubly Occupied:

       1A    -20.591919     2A    -20.582071     3A    -20.576019
       4A    -20.574721     5A    -20.574720     6A     -1.377774
       7A     -1.361805     8A     -1.359289     9A     -1.358080
      10A     -1.346227    11A     -0.747619    12A     -0.734702
      13A     -0.732805    14A     -0.718576    15A     -0.714541
      16A     -0.607105    17A     -0.601528    18A     -0.588375
      19A     -0.586210    20A     -0.580059    21A     -0.538122
      22A     -0.522673    23A     -0.519760    24A     -0.514833
      25A     -0.509448

  @DF-RHF Final Energy:  -380.28560481898535

   => Energetics <=

    Nuclear Repulsion Energy =            168.3978302212688050
    One-Electron Energy =                -859.5289073205511841
    Two-Electron Energy =                 310.8454722802970309
    Total Energy =                       -380.2856048189853482
 Dipole X            :        -30.4795803           30.8743001            0.3947198
 Dipole Y            :        118.9419473         -118.2858950            0.6560522
 Dipole Z            :        -29.8799254           30.5041103            0.6241849
 Magnitude           :                                                    0.9878335

    SAPT Results
  --------------------------------------------------------------------------------------------------------
    Electrostatics               -103.05275948 [mEh]     -64.66658287 [kcal/mol]    -270.56498274 [kJ/mol]
      Elst10,r                   -102.31269789 [mEh]     -64.20218722 [kcal/mol]    -268.62195131 [kJ/mol]
      Elst12,r                     -0.74006159 [mEh]      -0.46439566 [kcal/mol]      -1.94303144 [kJ/mol]

    Exchange                       81.66256244 [mEh]      51.24403158 [kcal/mol]     214.40502814 [kJ/mol]
      Exch10                       72.52781755 [mEh]      45.51189262 [kcal/mol]     190.42175873 [kJ/mol]
      Exch10(S^2)                  71.62607070 [mEh]      44.94603794 [kcal/mol]     188.05422272 [kJ/mol]
      Exch11(S^2)                   2.96073898 [mEh]       1.85789176 [kcal/mol]       7.77341911 [kJ/mol]
      Exch12(S^2)                   6.17400591 [mEh]       3.87424720 [kcal/mol]      16.20985029 [kJ/mol]

    Induction                     -38.84000446 [mEh]     -24.37247076 [kcal/mol]    -101.97441767 [kJ/mol]
      Ind20,r                     -58.90288573 [mEh]     -36.96211883 [kcal/mol]    -154.64950519 [kJ/mol]
      Ind22                        -7.56906307 [mEh]      -4.74965878 [kcal/mol]     -19.87257234 [kJ/mol]
      Exch-Ind20,r                 32.78363952 [mEh]      20.57204438 [kcal/mol]      86.07343370 [kJ/mol]
      Exch-Ind22                    4.21272119 [mEh]       2.64352246 [kcal/mol]      11.06049797 [kJ/mol]
      delta HF,r (2)               -9.36441638 [mEh]      -5.87625999 [kcal/mol]     -24.58627181 [kJ/mol]

    Dispersion                    -27.02522391 [mEh]     -16.95858403 [kcal/mol]     -70.95471559 [kJ/mol]
      Disp20                      -30.88631190 [mEh]     -19.38145333 [kcal/mol]     -81.09200072 [kJ/mol]
      Disp21                        2.20290908 [mEh]       1.38234632 [kcal/mol]       5.78373698 [kJ/mol]
      Disp22 (SDQ)                  0.02108962 [mEh]       0.01323393 [kcal/mol]       0.05537078 [kJ/mol]
      Disp22 (T)                   -4.87607584 [mEh]      -3.05978378 [kcal/mol]     -12.80213535 [kJ/mol]
      Est. Disp22 (T)              -5.59728253 [mEh]      -3.51234781 [kcal/mol]     -14.69566325 [kJ/mol]
      Exch-Disp20                   7.23437183 [mEh]       4.53963686 [kcal/mol]      18.99384061 [kJ/mol]

  Total HF                        -65.26854293 [mEh]     -40.95662903 [kcal/mol]    -171.36253586 [kJ/mol]
  Total SAPT0                     -88.92048301 [mEh]     -55.79844550 [kcal/mol]    -233.46069597 [kJ/mol]
  Total SAPT2                     -83.88214158 [mEh]     -52.63683852 [kcal/mol]    -220.23253238 [kJ/mol]
  Total SAPT2+                    -87.25542541 [mEh]     -54.75360609 [kcal/mol]    -229.08908786 [kJ/mol]

  Special recipe for scaled SAPT0 (see Manual):
    Electrostatics sSAPT0        -102.31269789 [mEh]     -64.20218722 [kcal/mol]    -268.62195131 [kJ/mol]
    Exchange sSAPT0                72.52781755 [mEh]      45.51189262 [kcal/mol]     190.42175873 [kJ/mol]
    Induction sSAPT0              -34.22980542 [mEh]     -21.47952719 [kcal/mol]     -89.87034176 [kJ/mol]
    Dispersion sSAPT0             -23.37525118 [mEh]     -14.66819157 [kcal/mol]     -61.37171352 [kJ/mol]
  Total sSAPT0                    -87.38993695 [mEh]     -54.83801335 [kcal/mol]    -229.44224785 [kJ/mol]
  --------------------------------------------------------------------------------------------------------

*** Psi4 exiting successfully. Buy a developer a beer!
