                               Psi4 1.8.2 release

  ==> Input File <==

--------------------------------------------------------------------------
MEMORY 60 GB

molecule dimer {
-1 1
Cl     0.000000     0.000000     0.000000
--
0 1
O     -3.345480    -0.015182     0.788190
H     -3.632837    -0.005960    -0.124407
H     -2.407724    -0.067282     0.760475
O      0.909665    -3.050980    -1.330231
H      0.510666    -2.302691    -0.878649
H      1.796129    -2.796512    -1.580084
O      0.623160    -1.959905     2.371318
H      1.061949    -2.773718     2.071950
H      0.542996    -1.324600     1.640391

units ang
no_reorient
no_com
symmetry c1
}

set {
basis        aug-cc-pVTZ
scf_type     df
}

energy("sapt2+")
--------------------------------------------------------------------------

  //              Dimer HF             //
    Molecular point group: c1
  Charge       = -1
  Multiplicity = 1
  Basis Set: AUG-CC-PVTZ
    Blend: AUG-CC-PVTZ
  Basis Set: (AUG-CC-PVTZ AUX)
    Blend: AUG-CC-PVTZ-JKFIT
  @DF-RHF Final Energy:  -687.80062453519326
    Total Energy =                       -687.8006245351932648
 Dipole X            :         32.5128631          -31.4262607            1.0866023
 Dipole Y            :         94.6264895          -93.5023240            1.1241655
 Dipole Z            :        -32.6369176           31.2256304           -1.4112872
 Magnitude           :                                                    2.1062251
  //            Monomer A HF           //
    Molecular point group: c1
  Multiplicity = 1
  Basis Set: AUG-CC-PVTZ
    Blend: AUG-CC-PVTZ
  Basis Set: (AUG-CC-PVTZ AUX)
    Blend: AUG-CC-PVTZ-JKFIT
  @DF-RHF Final Energy:  -459.57354246280505
    Total Energy =                       -459.5735424628050509
  //            Monomer B HF           //
    Molecular point group: c1

    Geometry (in Angstrom), charge = 0, multiplicity = 1:

       Center              X                  Y                   Z               Mass
    ------------   -----------------  -----------------  -----------------  -----------------
      Gh(CL)          0.000000000000     0.000000000000     0.000000000000    34.968852682000
         O           -3.345480000000    -0.015182000000     0.788190000000    15.994914619570
         H           -3.632837000000    -0.005960000000    -0.124407000000     1.007825032230
         H           -2.407724000000    -0.067282000000     0.760475000000     1.007825032230
         O            0.909665000000    -3.050980000000    -1.330231000000    15.994914619570
         H            0.510666000000    -2.302691000000    -0.878649000000     1.007825032230
         H            1.796129000000    -2.796512000000    -1.580084000000     1.007825032230
         O            0.623160000000    -1.959905000000     2.371318000000    15.994914619570
         H            1.061949000000    -2.773718000000     2.071950000000     1.007825032230
         H            0.542996000000    -1.324600000000     1.640391000000     1.007825032230

  Charge       = 0
  Multiplicity = 1
  Basis Set: AUG-CC-PVTZ
    Blend: AUG-CC-PVTZ
  Basis Set: (AUG-CC-PVTZ AUX)
    Blend: AUG-CC-PVTZ-JKFIT

    Orbital Energies [Eh]
    ---------------------

    Doubly Occupied:

       1A    -20.582897     2A    -20.575924     3A    -20.568657
       4A     -1.367863     5A     -1.360981     6A     -1.351058
       7A     -0.739895     8A     -0.730308     9A     -0.728629
      10A     -0.595477    11A     -0.587205    12A     -0.578832
      13A     -0.526016    14A     -0.516029    15A     -0.513953

  @DF-RHF Final Energy:  -228.17728390639073

   => Energetics <=

    Nuclear Repulsion Energy =             62.6403777044481842
    One-Electron Energy =                -438.9878751400682972
    Two-Electron Energy =                 148.1702135292293576
    Total Energy =                       -228.1772839063907270
 Dipole X            :         32.4310109          -31.4262607            1.0047502
 Dipole Y            :         93.9732310          -93.5023240            0.4709070
 Dipole Z            :        -32.3999807           31.2256304           -1.1743503
 Magnitude           :                                                    1.6156655

    SAPT Results
  --------------------------------------------------------------------------------------------------------
    Electrostatics                -64.48128053 [mEh]     -40.46261441 [kcal/mol]    -169.29557871 [kJ/mol]
      Elst10,r                    -64.91632214 [mEh]     -40.73560715 [kcal/mol]    -170.43778030 [kJ/mol]
      Elst12,r                      0.43504161 [mEh]       0.27299273 [kcal/mol]       1.14220160 [kJ/mol]

    Exchange                       39.59780566 [mEh]      24.84799819 [kcal/mol]     103.96402444 [kJ/mol]
      Exch10                       34.89787693 [mEh]      21.89874839 [kcal/mol]      91.62436326 [kJ/mol]
      Exch10(S^2)                  34.63210507 [mEh]      21.73197403 [kcal/mol]      90.92657932 [kJ/mol]
      Exch11(S^2)                   1.43205045 [mEh]       0.89862523 [kcal/mol]       3.75984795 [kJ/mol]
      Exch12(S^2)                   3.26787828 [mEh]       2.05062458 [kcal/mol]       8.57981324 [kJ/mol]

    Induction                     -21.58020303 [mEh]     -13.54178185 [kcal/mol]     -56.65881524 [kJ/mol]
      Ind20,r                     -30.54922183 [mEh]     -19.16992611 [kcal/mol]     -80.20697086 [kJ/mol]
      Ind22                        -3.88245232 [mEh]      -2.43627561 [kcal/mol]     -10.19337717 [kJ/mol]
      Exch-Ind20,r                 16.38205972 [mEh]      10.27989767 [kcal/mol]      43.01109187 [kJ/mol]
      Exch-Ind22                    2.08197008 [mEh]       1.30645595 [kcal/mol]       5.46621169 [kJ/mol]
      delta HF,r (2)               -5.61255868 [mEh]      -3.52193374 [kcal/mol]     -14.73577078 [kJ/mol]

    Dispersion                    -14.39142844 [mEh]      -9.03075769 [kcal/mol]     -37.78469016 [kJ/mol]
      Disp20                      -15.93410375 [mEh]      -9.99880106 [kcal/mol]     -41.83498364 [kJ/mol]
      Disp21                        0.86841411 [mEh]       0.54493808 [kcal/mol]       2.28002093 [kJ/mol]
      Disp22 (SDQ)                 -0.02051714 [mEh]      -0.01287470 [kcal/mol]      -0.05386773 [kJ/mol]
      Disp22 (T)                   -2.53649399 [mEh]      -1.59167401 [kcal/mol]      -6.65956406 [kJ/mol]
      Est. Disp22 (T)              -2.92961090 [mEh]      -1.83835860 [kcal/mol]      -7.69169237 [kJ/mol]
      Exch-Disp20                   3.62438925 [mEh]       2.27433859 [kcal/mol]       9.51583265 [kJ/mol]

  Total HF                        -49.79816600 [mEh]     -31.24882094 [kcal/mol]    -130.74506681 [kJ/mol]
  Total SAPT0                     -62.10788051 [mEh]     -38.97328341 [kcal/mol]    -163.06421780 [kJ/mol]
  Total SAPT2                     -58.77339240 [mEh]     -36.88086054 [kcal/mol]    -154.30952049 [kJ/mol]
  Total SAPT2+                    -60.85510633 [mEh]     -38.18715575 [kcal/mol]    -159.77505967 [kJ/mol]

  Special recipe for scaled SAPT0 (see Manual):
    Electrostatics sSAPT0         -64.91632214 [mEh]     -40.73560715 [kcal/mol]    -170.43778030 [kJ/mol]
    Exchange sSAPT0                34.89787693 [mEh]      21.89874839 [kcal/mol]      91.62436326 [kJ/mol]
    Induction sSAPT0              -19.39966404 [mEh]     -12.17347297 [kcal/mol]     -50.93381091 [kJ/mol]
    Dispersion sSAPT0             -12.22563023 [mEh]      -7.67169879 [kcal/mol]     -32.09838776 [kJ/mol]
  Total sSAPT0                    -61.64373948 [mEh]     -38.68203052 [kcal/mol]    -161.84561572 [kJ/mol]
  --------------------------------------------------------------------------------------------------------

*** Psi4 exiting successfully. Buy a developer a beer!
