                               Psi4 1.8.2 release

  ==> Input File <==

--------------------------------------------------------------------------
MEMORY 60 GB

molecule dimer {
-1 1
Cl     0.000000     0.000000     0.000000
--
0 1
O     -1.296686    -0.789802     2.747488
H     -0.958037    -0.553647     1.932824
H     -0.724324    -1.377608     3.241656
O     -2.076983    -2.553794    -0.486353
H     -1.591041    -1.707135    -0.380617
H     -3.010769    -2.279472    -0.495510
O     -0.476781     2.792384     1.610098
H     -0.194248     1.959841     1.163400
H      0.285662     3.369797     1.728100
O      2.175372    -1.021934     2.331685
H      2.807418    -1.629194     1.955755
H      1.693498    -0.623625     1.563577
O     -2.432882     1.506271    -1.718991
H     -1.619892     1.326935    -1.279633
H     -2.709491     0.637243    -2.073644

units ang
no_reorient
no_com
symmetry c1
}

set {
basis        aug-cc-pVTZ
scf_type     df
}

energy("sapt2+")
--------------------------------------------------------------------------

  //              Dimer HF             //
    Molecular point group: c1
  Charge       = -1
  Multiplicity = 1
  Basis Set: AUG-CC-PVTZ
    Blend: AUG-CC-PVTZ
  Basis Set: (AUG-CC-PVTZ AUX)
    Blend: AUG-CC-PVTZ-JKFIT
  @DF-RHF Final Energy:  -839.93227919373419
    Total Energy =                       -839.9322791937341890
 Dipole X            :         75.3131112          -73.4818190            1.8312922
 Dipole Y            :          2.1636735           -2.6680382           -0.5043647
 Dipole Z            :        -83.1479657           81.6878035           -1.4601622
 Magnitude           :                                                    2.3958482
  //            Monomer A HF           //
    Molecular point group: c1
  Multiplicity = 1
  Basis Set: AUG-CC-PVTZ
    Blend: AUG-CC-PVTZ
  Basis Set: (AUG-CC-PVTZ AUX)
    Blend: AUG-CC-PVTZ-JKFIT
  @DF-RHF Final Energy:  -459.57358116320967
    Total Energy =                       -459.5735811632096102
  //            Monomer B HF           //
    Molecular point group: c1

    Geometry (in Angstrom), charge = 0, multiplicity = 1:

       Center              X                  Y                   Z               Mass
    ------------   -----------------  -----------------  -----------------  -----------------
      Gh(CL)          0.000000000000     0.000000000000     0.000000000000    34.968852682000
         O           -1.296686000000    -0.789802000000     2.747488000000    15.994914619570
         H           -0.958037000000    -0.553647000000     1.932824000000     1.007825032230
         H           -0.724324000000    -1.377608000000     3.241656000000     1.007825032230
         O           -2.076983000000    -2.553794000000    -0.486353000000    15.994914619570
         H           -1.591041000000    -1.707135000000    -0.380617000000     1.007825032230
         H           -3.010769000000    -2.279472000000    -0.495510000000     1.007825032230
         O           -0.476781000000     2.792384000000     1.610098000000    15.994914619570
         H           -0.194248000000     1.959841000000     1.163400000000     1.007825032230
         H            0.285662000000     3.369797000000     1.728100000000     1.007825032230
         O            2.175372000000    -1.021934000000     2.331685000000    15.994914619570
         H            2.807418000000    -1.629194000000     1.955755000000     1.007825032230
         H            1.693498000000    -0.623625000000     1.563577000000     1.007825032230
         O           -2.432882000000     1.506271000000    -1.718991000000    15.994914619570
         H           -1.619892000000     1.326935000000    -1.279633000000     1.007825032230
         H           -2.709491000000     0.637243000000    -2.073644000000     1.007825032230

  Charge       = 0
  Multiplicity = 1
  Basis Set: AUG-CC-PVTZ
    Blend: AUG-CC-PVTZ
  Basis Set: (AUG-CC-PVTZ AUX)
    Blend: AUG-CC-PVTZ-JKFIT

    Orbital Energies [Eh]
    ---------------------

    Doubly Occupied:

       1A    -20.592008     2A    -20.586266     3A    -20.581215
       4A    -20.577999     5A    -20.560769     6A     -1.368416
       7A     -1.366049     8A     -1.361275     9A     -1.358897
      10A     -1.351058    11A     -0.750067    12A     -0.735606
      13A     -0.729889    14A     -0.726394    15A     -0.720060
      16A     -0.601963    17A     -0.599852    18A     -0.595051
      19A     -0.580420    20A     -0.573350    21A     -0.531146
      22A     -0.524875    23A     -0.522960    24A     -0.517118
      25A     -0.509231

  @DF-RHF Final Energy:  -380.28405710649957

   => Energetics <=

    Nuclear Repulsion Energy =            164.1640416695023816
    One-Electron Energy =                -851.0523249341974861
    Two-Electron Energy =                 306.6042261581955586
    Total Energy =                       -380.2840571064995743
 Dipole X            :         74.9480422          -73.4818190            1.4662232
 Dipole Y            :          2.1639042           -2.6680382           -0.5041339
 Dipole Z            :        -82.6275585           81.6878035           -0.9397551
 Magnitude           :                                                    1.8130364

    SAPT Results
  --------------------------------------------------------------------------------------------------------
    Electrostatics               -104.96862590 [mEh]     -65.86880720 [kcal/mol]    -275.59508933 [kJ/mol]
      Elst10,r                   -105.11212697 [mEh]     -65.95885549 [kcal/mol]    -275.97185135 [kJ/mol]
      Elst12,r                      0.14350108 [mEh]       0.09004828 [kcal/mol]       0.37676202 [kJ/mol]

    Exchange                       70.23702424 [mEh]      44.07439812 [kcal/mol]     184.40728174 [kJ/mol]
      Exch10                       61.36081208 [mEh]      38.50449090 [kcal/mol]     161.10278992 [kJ/mol]
      Exch10(S^2)                  61.00476584 [mEh]      38.28106851 [kcal/mol]     160.16799064 [kJ/mol]
      Exch11(S^2)                   2.98501301 [mEh]       1.87312394 [kcal/mol]       7.83715058 [kJ/mol]
      Exch12(S^2)                   5.89119915 [mEh]       3.69678328 [kcal/mol]      15.46734125 [kJ/mol]

    Induction                     -34.11904373 [mEh]     -21.41002318 [kcal/mol]     -89.57953697 [kJ/mol]
      Ind20,r                     -49.44252946 [mEh]     -31.02565565 [kcal/mol]    -129.81134322 [kJ/mol]
      Ind22                        -6.79741537 [mEh]      -4.26544254 [kcal/mol]     -17.84661160 [kJ/mol]
      Exch-Ind20,r                 25.95251057 [mEh]      16.28544625 [kcal/mol]      68.13830711 [kJ/mol]
      Exch-Ind22                    3.56798077 [mEh]       2.23894173 [kcal/mol]       9.36773222 [kJ/mol]
      delta HF,r (2)               -7.39959023 [mEh]      -4.64331297 [kcal/mol]     -19.42762148 [kJ/mol]

    Dispersion                    -26.08511278 [mEh]     -16.36865539 [kcal/mol]     -68.48645416 [kJ/mol]
      Disp20                      -29.07496142 [mEh]     -18.24481374 [kcal/mol]     -76.33630068 [kJ/mol]
      Disp21                        1.78175447 [mEh]       1.11806781 [kcal/mol]       4.67799572 [kJ/mol]
      Disp22 (SDQ)                 -0.03527423 [mEh]      -0.02213492 [kcal/mol]      -0.09261249 [kJ/mol]
      Disp22 (T)                   -4.67399147 [mEh]      -2.93297393 [kcal/mol]     -12.27156291 [kJ/mol]
      Est. Disp22 (T)              -5.37549435 [mEh]      -3.37317363 [kcal/mol]     -14.11335846 [kJ/mol]
      Exch-Disp20                   6.61886275 [mEh]       4.15339908 [kcal/mol]      17.37782175 [kJ/mol]

  Total HF                        -74.64092402 [mEh]     -46.83788696 [kcal/mol]    -195.96971903 [kJ/mol]
  Total SAPT0                     -97.09702269 [mEh]     -60.92930161 [kcal/mol]    -254.92819796 [kJ/mol]
  Total SAPT2                     -91.30674405 [mEh]     -57.29584691 [kcal/mol]    -239.72582349 [kJ/mol]
  Total SAPT2+                    -94.93575816 [mEh]     -59.57308765 [kcal/mol]    -249.25379872 [kJ/mol]

  Special recipe for scaled SAPT0 (see Manual):
    Electrostatics sSAPT0        -105.11212697 [mEh]     -65.95885549 [kcal/mol]    -275.97185135 [kJ/mol]
    Exchange sSAPT0                61.36081208 [mEh]      38.50449090 [kcal/mol]     161.10278992 [kJ/mol]
    Induction sSAPT0              -30.43254672 [mEh]     -19.09671138 [kcal/mol]     -79.90064040 [kJ/mol]
    Dispersion sSAPT0             -22.33953062 [mEh]     -14.01826711 [kcal/mol]     -58.65242957 [kJ/mol]
  Total sSAPT0                    -96.52339224 [mEh]     -60.56934307 [kcal/mol]    -253.42213141 [kJ/mol]
  --------------------------------------------------------------------------------------------------------

*** Psi4 exiting successfully. Buy a developer a beer!
