                               Psi4 1.8.2 release

  ==> Input File <==

--------------------------------------------------------------------------
MEMORY 60 GB

molecule dimer {
-1 1
Cl     0.000000     0.000000     0.000000
--
0 1
O     -0.722002    -3.248013     0.354964
H     -0.613309    -2.289253     0.433906
H     -1.574971    -3.503131     0.680548
O     -1.526330     2.399946     1.544144
H     -1.173898     2.409457     2.433870
H     -1.098273     1.621727     1.168734
O      3.178802    -0.106216     0.211667
H      3.377119    -0.828001     0.797087
H      2.256728     0.086519     0.321265
O      1.888706     2.928582     0.086703
H      1.196918     2.292193     0.279175
H      1.627389     3.844402     0.410362
O      0.992794    -0.592290     3.268874
H      1.905677    -0.231051     3.156662
H      0.406310    -0.199508     2.620077

units ang
no_reorient
no_com
symmetry c1
}

set {
basis        aug-cc-pVTZ
scf_type     df
}

energy("sapt2+")
--------------------------------------------------------------------------

  //              Dimer HF             //
    Molecular point group: c1
  Charge       = -1
  Multiplicity = 1
  Basis Set: AUG-CC-PVTZ
    Blend: AUG-CC-PVTZ
  Basis Set: (AUG-CC-PVTZ AUX)
    Blend: AUG-CC-PVTZ-JKFIT
  @DF-RHF Final Energy:  -839.92646358013462
    Total Energy =                       -839.9264635801346230
 Dipole X            :        -70.6844845           69.5522204           -1.1322641
 Dipole Y            :        -26.8312947           26.9464098            0.1151152
 Dipole Z            :       -105.6855730          105.8860829            0.2005099
 Magnitude           :                                                    1.1556287
  //            Monomer A HF           //
    Molecular point group: c1
  Multiplicity = 1
  Basis Set: AUG-CC-PVTZ
    Blend: AUG-CC-PVTZ
  Basis Set: (AUG-CC-PVTZ AUX)
    Blend: AUG-CC-PVTZ-JKFIT
  @DF-RHF Final Energy:  -459.57357228667348
    Total Energy =                       -459.5735722866734818
  //            Monomer B HF           //
    Molecular point group: c1

    Geometry (in Angstrom), charge = 0, multiplicity = 1:

       Center              X                  Y                   Z               Mass
    ------------   -----------------  -----------------  -----------------  -----------------
      Gh(CL)          0.000000000000     0.000000000000     0.000000000000    34.968852682000
         O           -0.722002000000    -3.248013000000     0.354964000000    15.994914619570
         H           -0.613309000000    -2.289253000000     0.433906000000     1.007825032230
         H           -1.574971000000    -3.503131000000     0.680548000000     1.007825032230
         O           -1.526330000000     2.399946000000     1.544144000000    15.994914619570
         H           -1.173898000000     2.409457000000     2.433870000000     1.007825032230
         H           -1.098273000000     1.621727000000     1.168734000000     1.007825032230
         O            3.178802000000    -0.106216000000     0.211667000000    15.994914619570
         H            3.377119000000    -0.828001000000     0.797087000000     1.007825032230
         H            2.256728000000     0.086519000000     0.321265000000     1.007825032230
         O            1.888706000000     2.928582000000     0.086703000000    15.994914619570
         H            1.196918000000     2.292193000000     0.279175000000     1.007825032230
         H            1.627389000000     3.844402000000     0.410362000000     1.007825032230
         O            0.992794000000    -0.592290000000     3.268874000000    15.994914619570
         H            1.905677000000    -0.231051000000     3.156662000000     1.007825032230
         H            0.406310000000    -0.199508000000     2.620077000000     1.007825032230

  Charge       = 0
  Multiplicity = 1
  Basis Set: AUG-CC-PVTZ
    Blend: AUG-CC-PVTZ
  Basis Set: (AUG-CC-PVTZ AUX)
    Blend: AUG-CC-PVTZ-JKFIT

    Orbital Energies [Eh]
    ---------------------

    Doubly Occupied:

       1A    -20.601223     2A    -20.597136     3A    -20.578312
       4A    -20.574808     5A    -20.573550     6A     -1.385967
       7A     -1.371785     8A     -1.364870     9A     -1.359264
      10A     -1.347232    11A     -0.748518    12A     -0.743001
      13A     -0.737582    14A     -0.737322    15A     -0.723175
      16A     -0.620619    17A     -0.601534    18A     -0.588594
      19A     -0.583738    20A     -0.577300    21A     -0.541751
      22A     -0.536509    23A     -0.520581    24A     -0.518084
      25A     -0.513419

  @DF-RHF Final Energy:  -380.28414677662107

   => Energetics <=

    Nuclear Repulsion Energy =            165.1453128855027899
    One-Electron Energy =                -852.7671723166160973
    Two-Electron Energy =                 307.3377126544922362
    Total Energy =                       -380.2841467766210712
 Dipole X            :        -70.3957814           69.5522204           -0.8435609
 Dipole Y            :        -26.6072363           26.9464098            0.3391736
 Dipole Z            :       -104.9443754          105.8860829            0.9417075
 Magnitude           :                                                    1.3089869

    SAPT Results
  --------------------------------------------------------------------------------------------------------
    Electrostatics                -90.32016060 [mEh]     -56.67675645 [kcal/mol]    -237.13554898 [kJ/mol]
      Elst10,r                    -90.35407931 [mEh]     -56.69804076 [kcal/mol]    -237.22460255 [kJ/mol]
      Elst12,r                      0.03391871 [mEh]       0.02128431 [kcal/mol]       0.08905357 [kJ/mol]

    Exchange                       59.16937093 [mEh]      37.12934082 [kcal/mol]     155.34916198 [kJ/mol]
      Exch10                       51.79546997 [mEh]      32.50214810 [kcal/mol]     135.98898766 [kJ/mol]
      Exch10(S^2)                  51.48426382 [mEh]      32.30686330 [kcal/mol]     135.17191603 [kJ/mol]
      Exch11(S^2)                   2.29638871 [mEh]       1.44100567 [kcal/mol]       6.02916773 [kJ/mol]
      Exch12(S^2)                   5.07751225 [mEh]       3.18618704 [kcal/mol]      13.33100658 [kJ/mol]

    Induction                     -33.07595660 [mEh]     -20.75547612 [kcal/mol]     -86.84091208 [kJ/mol]
      Ind20,r                     -46.70036697 [mEh]     -29.30492270 [kcal/mol]    -122.61179660 [kJ/mol]
      Ind22                        -5.82714757 [mEh]      -3.65659030 [kcal/mol]     -15.29917383 [kJ/mol]
      Exch-Ind20,r                 23.53871677 [mEh]      14.77076777 [kcal/mol]      61.80089236 [kJ/mol]
      Exch-Ind22                    2.93709846 [mEh]       1.84305711 [kcal/mol]       7.71135096 [kJ/mol]
      delta HF,r (2)               -7.02425729 [mEh]      -4.40778800 [kcal/mol]     -18.44218497 [kJ/mol]

    Dispersion                    -22.90114279 [mEh]     -14.37068406 [kcal/mol]     -60.12694210 [kJ/mol]
      Disp20                      -25.30565795 [mEh]     -15.87954011 [kcal/mol]     -66.43999580 [kJ/mol]
      Disp21                        1.57059166 [mEh]       0.98556115 [kcal/mol]       4.12358785 [kJ/mol]
      Disp22 (SDQ)                 -0.07145175 [mEh]      -0.04483665 [kcal/mol]      -0.18759656 [kJ/mol]
      Disp22 (T)                   -4.08124088 [mEh]      -2.56101732 [kcal/mol]     -10.71529646 [kJ/mol]
      Est. Disp22 (T)              -4.71100784 [mEh]      -2.95620205 [kcal/mol]     -12.36874938 [kJ/mol]
      Exch-Disp20                   5.61638310 [mEh]       3.52433360 [kcal/mol]      14.74581179 [kJ/mol]

  Total HF                        -68.74451684 [mEh]     -43.13783559 [kcal/mol]    -180.48870410 [kJ/mol]
  Total SAPT0                     -88.43379170 [mEh]     -55.49304209 [kcal/mol]    -232.18288811 [kJ/mol]
  Total SAPT2                     -83.91602112 [mEh]     -52.65809826 [kcal/mol]    -220.32148310 [kJ/mol]
  Total SAPT2+                    -87.12788905 [mEh]     -54.67357581 [kcal/mol]    -228.75424119 [kJ/mol]

  Special recipe for scaled SAPT0 (see Manual):
    Electrostatics sSAPT0         -90.35407931 [mEh]     -56.69804076 [kcal/mol]    -237.22460255 [kJ/mol]
    Exchange sSAPT0                51.79546997 [mEh]      32.50214810 [kcal/mol]     135.98898766 [kJ/mol]
    Induction sSAPT0              -29.75646974 [mEh]     -18.67246667 [kcal/mol]     -78.12560053 [kJ/mol]
    Dispersion sSAPT0             -19.58681018 [mEh]     -12.29090895 [kcal/mol]     -51.42516304 [kJ/mol]
  Total sSAPT0                    -87.90188926 [mEh]     -55.15926827 [kcal/mol]    -230.78637846 [kJ/mol]
  --------------------------------------------------------------------------------------------------------

*** Psi4 exiting successfully. Buy a developer a beer!
