                               Psi4 1.8.2 release

  ==> Input File <==

--------------------------------------------------------------------------
MEMORY 60 GB

molecule dimer {
-1 1
Cl     0.000000     0.000000     0.000000
--
0 1
O     -3.370024     0.123556    -0.210045
H     -3.712136    -0.753568    -0.410247
H     -2.509058    -0.095905     0.154564
O      2.269159     0.583446     2.589957
H      2.144119     1.147020     3.342242
H      1.407737     0.721846     2.187714
O     -1.122723    -2.623202     2.011204
H     -0.197973    -2.402084     2.039071
H     -1.372546    -2.635123     1.061311
O      2.630297    -1.501053    -0.382371
H      1.890837    -0.976617    -0.284482
H      3.323921    -0.843864    -0.700421
O     -1.415811     1.063094    -2.492588
H     -1.911670     1.851984    -2.471353
H     -0.800053     1.148544    -1.739880
O      1.833537     2.448442    -1.561515
H      1.282768     2.936430    -2.175940
H      1.341122     1.773778    -0.981948

units ang
no_reorient
no_com
symmetry c1
}

set {
basis        aug-cc-pVTZ
scf_type     df
}

energy("sapt2+")
--------------------------------------------------------------------------

  //              Dimer HF             //
    Molecular point group: c1
  Charge       = -1
  Multiplicity = 1
  Basis Set: AUG-CC-PVTZ
    Blend: AUG-CC-PVTZ
  Basis Set: (AUG-CC-PVTZ AUX)
    Blend: AUG-CC-PVTZ-JKFIT
  @DF-RHF Final Energy:  -915.97707721331687
    Total Energy =                       -915.9770772133168748
 Dipole X            :        -14.8205063           14.1399664           -0.6805398
 Dipole Y            :         -4.0874757            4.9637531            0.8762774
 Dipole Z            :          0.8941166           -0.6467266            0.2473900
 Magnitude           :                                                    1.1367490
  //            Monomer A HF           //
    Molecular point group: c1
  Multiplicity = 1
  Basis Set: AUG-CC-PVTZ
    Blend: AUG-CC-PVTZ
  Basis Set: (AUG-CC-PVTZ AUX)
    Blend: AUG-CC-PVTZ-JKFIT
  @DF-RHF Final Energy:  -459.57358292542875
    Total Energy =                       -459.5735829254286955
  //            Monomer B HF           //
    Molecular point group: c1

    Geometry (in Angstrom), charge = 0, multiplicity = 1:

       Center              X                  Y                   Z               Mass
    ------------   -----------------  -----------------  -----------------  -----------------
      Gh(CL)          0.000000000000     0.000000000000     0.000000000000    34.968852682000
         O           -3.370024000000     0.123556000000    -0.210045000000    15.994914619570
         H           -3.712136000000    -0.753568000000    -0.410247000000     1.007825032230
         H           -2.509058000000    -0.095905000000     0.154564000000     1.007825032230
         O            2.269159000000     0.583446000000     2.589957000000    15.994914619570
         H            2.144119000000     1.147020000000     3.342242000000     1.007825032230
         H            1.407737000000     0.721846000000     2.187714000000     1.007825032230
         O           -1.122723000000    -2.623202000000     2.011204000000    15.994914619570
         H           -0.197973000000    -2.402084000000     2.039071000000     1.007825032230
         H           -1.372546000000    -2.635123000000     1.061311000000     1.007825032230
         O            2.630297000000    -1.501053000000    -0.382371000000    15.994914619570
         H            1.890837000000    -0.976617000000    -0.284482000000     1.007825032230
         H            3.323921000000    -0.843864000000    -0.700421000000     1.007825032230
         O           -1.415811000000     1.063094000000    -2.492588000000    15.994914619570
         H           -1.911670000000     1.851984000000    -2.471353000000     1.007825032230
         H           -0.800053000000     1.148544000000    -1.739880000000     1.007825032230
         O            1.833537000000     2.448442000000    -1.561515000000    15.994914619570
         H            1.282768000000     2.936430000000    -2.175940000000     1.007825032230
         H            1.341122000000     1.773778000000    -0.981948000000     1.007825032230

  Charge       = 0
  Multiplicity = 1
  Basis Set: AUG-CC-PVTZ
    Blend: AUG-CC-PVTZ
  Basis Set: (AUG-CC-PVTZ AUX)
    Blend: AUG-CC-PVTZ-JKFIT

    Orbital Energies [Eh]
    ---------------------

    Doubly Occupied:

       1A    -20.590709     2A    -20.586254     3A    -20.581674
       4A    -20.579388     5A    -20.576994     6A    -20.573930
       7A     -1.377128     8A     -1.369602     9A     -1.362570
      10A     -1.362125    11A     -1.361290    12A     -1.355711
      13A     -0.743940    14A     -0.732884    15A     -0.729329
      16A     -0.722738    17A     -0.719391    18A     -0.717140
      19A     -0.615629    20A     -0.601388    21A     -0.599416
      22A     -0.593896    23A     -0.592738    24A     -0.580584
      25A     -0.534056    26A     -0.529136    27A     -0.527269
      28A     -0.522634    29A     -0.516664    30A     -0.508806

  @DF-RHF Final Energy:  -456.33727584815836

   => Energetics <=

    Nuclear Repulsion Energy =            224.0756282033696891
    One-Electron Energy =               -1075.2957746192507784
    Two-Electron Energy =                 394.8828705677227617
    Total Energy =                       -456.3372758481583560
 Dipole X            :        -14.6111001           14.1399664           -0.4711336
 Dipole Y            :         -3.8402811            4.9637531            1.1234720
 Dipole Z            :          0.6906726           -0.6467266            0.0439460
 Magnitude           :                                                    1.2190519

    SAPT Results
  --------------------------------------------------------------------------------------------------------
    Electrostatics               -102.76864500 [mEh]     -64.48829834 [kcal/mol]    -269.81904026 [kJ/mol]
      Elst10,r                   -102.12432144 [mEh]     -64.08397921 [kcal/mol]    -268.12736900 [kJ/mol]
      Elst12,r                     -0.64432356 [mEh]      -0.40431914 [kcal/mol]      -1.69167127 [kJ/mol]

    Exchange                       76.62969636 [mEh]      48.08586044 [kcal/mol]     201.19124006 [kJ/mol]
      Exch10                       67.29310717 [mEh]      42.22706227 [kcal/mol]     176.67802854 [kJ/mol]
      Exch10(S^2)                  66.67078356 [mEh]      41.83654831 [kcal/mol]     175.04411813 [kJ/mol]
      Exch11(S^2)                   2.94015859 [mEh]       1.84497737 [kcal/mol]       7.71938532 [kJ/mol]
      Exch12(S^2)                   6.39643059 [mEh]       4.01382079 [kcal/mol]      16.79382620 [kJ/mol]

    Induction                     -34.74998526 [mEh]     -21.80594496 [kcal/mol]     -91.23607373 [kJ/mol]
      Ind20,r                     -54.42902592 [mEh]     -34.15472941 [kcal/mol]    -142.90338787 [kJ/mol]
      Ind22                        -7.44028437 [mEh]      -4.66884893 [kcal/mol]     -19.53446393 [kJ/mol]
      Exch-Ind20,r                 29.82892584 [mEh]      18.71793356 [kcal/mol]      78.31583401 [kJ/mol]
      Exch-Ind22                    4.07752458 [mEh]       2.55868530 [kcal/mol]      10.70553930 [kJ/mol]
      delta HF,r (2)               -6.78712539 [mEh]      -4.25898548 [kcal/mol]     -17.81959524 [kJ/mol]

    Dispersion                    -28.45227850 [mEh]     -17.85407431 [kcal/mol]     -74.70144692 [kJ/mol]
      Disp20                      -31.89885445 [mEh]     -20.01683337 [kcal/mol]     -83.75043081 [kJ/mol]
      Disp21                        2.09433665 [mEh]       1.31421609 [kcal/mol]       5.49868012 [kJ/mol]
      Disp22 (SDQ)                 -0.05307236 [mEh]      -0.03330341 [kcal/mol]      -0.13934147 [kJ/mol]
      Disp22 (T)                   -5.09000164 [mEh]      -3.19402425 [kcal/mol]     -13.36379747 [kJ/mol]
      Est. Disp22 (T)              -5.87407910 [mEh]      -3.68604029 [kcal/mol]     -15.42239255 [kJ/mol]
      Exch-Disp20                   7.27939075 [mEh]       4.56788666 [kcal/mol]      19.11203779 [kJ/mol]

  Total HF                        -66.21843973 [mEh]     -41.55269827 [kcal/mol]    -173.85648956 [kJ/mol]
  Total SAPT0                     -90.83790342 [mEh]     -57.00164498 [kcal/mol]    -238.49488258 [kJ/mol]
  Total SAPT2                     -85.50839759 [mEh]     -53.65732958 [kcal/mol]    -224.50226695 [kJ/mol]
  Total SAPT2+                    -89.34121240 [mEh]     -56.06245718 [kcal/mol]    -234.56532085 [kJ/mol]

  Special recipe for scaled SAPT0 (see Manual):
    Electrostatics sSAPT0        -102.12432144 [mEh]     -64.08397921 [kcal/mol]    -268.12736900 [kJ/mol]
    Exchange sSAPT0                67.29310717 [mEh]      42.22706227 [kcal/mol]     176.67802854 [kJ/mol]
    Induction sSAPT0              -30.54410990 [mEh]     -19.16671833 [kcal/mol]     -80.19354949 [kJ/mol]
    Dispersion sSAPT0             -24.41371147 [mEh]     -15.31983524 [kcal/mol]     -64.09819065 [kJ/mol]
  Total sSAPT0                    -89.78903564 [mEh]     -56.34347051 [kcal/mol]    -235.74108060 [kJ/mol]
  --------------------------------------------------------------------------------------------------------

*** Psi4 exiting successfully. Buy a developer a beer!
