                               Psi4 1.8.2 release

  ==> Input File <==

--------------------------------------------------------------------------
MEMORY 60 GB

molecule dimer {
-1 1
Cl     0.000000     0.000000     0.000000
--
0 1
O      2.151842     1.930427    -1.340171
H      1.350694     1.443964    -1.092752
H      2.600730     2.059208    -0.557280
O     -0.845603    -1.954378    -2.400622
H     -0.576408    -1.381923    -1.685351
H     -0.891883    -2.856008    -2.074388
O     -2.695475     1.706640    -1.327933
H     -1.902725     1.294081    -0.924358
H     -2.569155     2.694294    -1.426749
O     -2.474764    -2.030755     0.960515
H     -3.239782    -1.595363     0.512300
H     -1.802427    -1.355761     0.798361
O     -1.355417     2.160929     1.846580
H     -0.713707     2.483561     2.470183
H     -1.000521     1.322098     1.546916

units ang
no_reorient
no_com
symmetry c1
}

set {
basis        aug-cc-pVTZ
scf_type     df
}

energy("sapt2+")
--------------------------------------------------------------------------

  //              Dimer HF             //
    Molecular point group: c1
  Charge       = -1
  Multiplicity = 1
  Basis Set: AUG-CC-PVTZ
    Blend: AUG-CC-PVTZ
  Basis Set: (AUG-CC-PVTZ AUX)
    Blend: AUG-CC-PVTZ-JKFIT
  @DF-RHF Final Energy:  -839.93322777043852
    Total Energy =                       -839.9332277704385206
 Dipole X            :         96.9990301          -95.4321520            1.5668781
 Dipole Y            :        -35.0688283           35.1697969            0.1009685
 Dipole Z            :         40.3686660          -38.7888321            1.5798338
 Magnitude           :                                                    2.2273698
  //            Monomer A HF           //
    Molecular point group: c1
  Multiplicity = 1
  Basis Set: AUG-CC-PVTZ
    Blend: AUG-CC-PVTZ
  Basis Set: (AUG-CC-PVTZ AUX)
    Blend: AUG-CC-PVTZ-JKFIT
  @DF-RHF Final Energy:  -459.57358390464179
    Total Energy =                       -459.5735839046417937
  //            Monomer B HF           //
    Molecular point group: c1

    Geometry (in Angstrom), charge = 0, multiplicity = 1:

       Center              X                  Y                   Z               Mass
    ------------   -----------------  -----------------  -----------------  -----------------
      Gh(CL)          0.000000000000     0.000000000000     0.000000000000    34.968852682000
         O            2.151842000000     1.930427000000    -1.340171000000    15.994914619570
         H            1.350694000000     1.443964000000    -1.092752000000     1.007825032230
         H            2.600730000000     2.059208000000    -0.557280000000     1.007825032230
         O           -0.845603000000    -1.954378000000    -2.400622000000    15.994914619570
         H           -0.576408000000    -1.381923000000    -1.685351000000     1.007825032230
         H           -0.891883000000    -2.856008000000    -2.074388000000     1.007825032230
         O           -2.695475000000     1.706640000000    -1.327933000000    15.994914619570
         H           -1.902725000000     1.294081000000    -0.924358000000     1.007825032230
         H           -2.569155000000     2.694294000000    -1.426749000000     1.007825032230
         O           -2.474764000000    -2.030755000000     0.960515000000    15.994914619570
         H           -3.239782000000    -1.595363000000     0.512300000000     1.007825032230
         H           -1.802427000000    -1.355761000000     0.798361000000     1.007825032230
         O           -1.355417000000     2.160929000000     1.846580000000    15.994914619570
         H           -0.713707000000     2.483561000000     2.470183000000     1.007825032230
         H           -1.000521000000     1.322098000000     1.546916000000     1.007825032230

  Charge       = 0
  Multiplicity = 1
  Basis Set: AUG-CC-PVTZ
    Blend: AUG-CC-PVTZ
  Basis Set: (AUG-CC-PVTZ AUX)
    Blend: AUG-CC-PVTZ-JKFIT

    Orbital Energies [Eh]
    ---------------------

    Doubly Occupied:

       1A    -20.592982     2A    -20.587115     3A    -20.580240
       4A    -20.576202     5A    -20.572339     6A     -1.380981
       7A     -1.379104     8A     -1.361847     9A     -1.357393
      10A     -1.339395    11A     -0.746469    12A     -0.744515
      13A     -0.733362    14A     -0.717583    15A     -0.710483
      16A     -0.610633    17A     -0.605898    18A     -0.602294
      19A     -0.583061    20A     -0.573104    21A     -0.536362
      22A     -0.527473    23A     -0.525647    24A     -0.514497
      25A     -0.511395

  @DF-RHF Final Energy:  -380.28499795401586

   => Energetics <=

    Nuclear Repulsion Energy =            163.3160138761219287
    One-Electron Energy =                -849.2612692930928233
    Two-Electron Energy =                 305.6602574629550304
    Total Energy =                       -380.2849979540158643
 Dipole X            :         96.4615816          -95.4321520            1.0294296
 Dipole Y            :        -34.8186903           35.1697969            0.3511066
 Dipole Z            :         40.1996764          -38.7888321            1.4108442
 Magnitude           :                                                    1.7814271

    SAPT Results
  --------------------------------------------------------------------------------------------------------
    Electrostatics               -108.59704402 [mEh]     -68.14567395 [kcal/mol]    -285.12149979 [kJ/mol]
      Elst10,r                   -108.70239146 [mEh]     -68.21178047 [kcal/mol]    -285.39808947 [kJ/mol]
      Elst12,r                      0.10534744 [mEh]       0.06610652 [kcal/mol]       0.27658968 [kJ/mol]

    Exchange                       75.31824814 [mEh]      47.26291425 [kcal/mol]     197.74803324 [kJ/mol]
      Exch10                       65.89930607 [mEh]      41.35243887 [kcal/mol]     173.01860424 [kJ/mol]
      Exch10(S^2)                  65.47970306 [mEh]      41.08913401 [kcal/mol]     171.91693669 [kJ/mol]
      Exch11(S^2)                   3.25131935 [mEh]       2.04023369 [kcal/mol]       8.53633777 [kJ/mol]
      Exch12(S^2)                   6.16762272 [mEh]       3.87024169 [kcal/mol]      16.19309123 [kJ/mol]

    Induction                     -35.20267122 [mEh]     -22.09000969 [kcal/mol]     -92.42460054 [kJ/mol]
      Ind20,r                     -52.36347683 [mEh]     -32.85857779 [kcal/mol]    -137.48028948 [kJ/mol]
      Ind22                        -7.21881267 [mEh]      -4.52987334 [kcal/mol]     -18.95299005 [kJ/mol]
      Exch-Ind20,r                 27.99199565 [mEh]      17.56524246 [kcal/mol]      73.49297444 [kJ/mol]
      Exch-Ind22                    3.85896783 [mEh]       2.42153887 [kcal/mol]      10.13171865 [kJ/mol]
      delta HF,r (2)               -7.47134519 [mEh]      -4.68833989 [kcal/mol]     -19.61601411 [kJ/mol]

    Dispersion                    -27.15612016 [mEh]     -17.04072267 [kcal/mol]     -71.29838366 [kJ/mol]
      Disp20                      -30.38344068 [mEh]     -19.06589687 [kcal/mol]     -79.77171252 [kJ/mol]
      Disp21                        1.85683452 [mEh]       1.16518126 [kcal/mol]       4.87511837 [kJ/mol]
      Disp22 (SDQ)                 -0.03906921 [mEh]      -0.02451630 [kcal/mol]      -0.10257618 [kJ/mol]
      Disp22 (T)                   -4.86955083 [mEh]      -3.05568928 [kcal/mol]     -12.78500393 [kJ/mol]
      Est. Disp22 (T)              -5.59929524 [mEh]      -3.51361081 [kcal/mol]     -14.70094763 [kJ/mol]
      Exch-Disp20                   7.00885044 [mEh]       4.39812005 [kcal/mol]      18.40173431 [kJ/mol]

  Total HF                        -74.64591178 [mEh]     -46.84101682 [kcal/mol]    -195.98281438 [kJ/mol]
  Total SAPT0                     -98.02050202 [mEh]     -61.50879364 [kcal/mol]    -257.35279259 [kJ/mol]
  Total SAPT2                     -91.85605734 [mEh]     -57.64054620 [kcal/mol]    -241.16804532 [kJ/mol]
  Total SAPT2+                    -95.63758726 [mEh]     -60.01349206 [kcal/mol]    -251.09645076 [kJ/mol]

  Special recipe for scaled SAPT0 (see Manual):
    Electrostatics sSAPT0        -108.70239146 [mEh]     -68.21178047 [kcal/mol]    -285.39808947 [kJ/mol]
    Exchange sSAPT0                65.89930607 [mEh]      41.35243887 [kcal/mol]     173.01860424 [kJ/mol]
    Induction sSAPT0              -31.30124085 [mEh]     -19.64182517 [kcal/mol]     -82.18139653 [kJ/mol]
    Dispersion sSAPT0             -23.23898390 [mEh]     -14.58268256 [kcal/mol]     -61.01394382 [kJ/mol]
  Total sSAPT0                    -97.34331015 [mEh]     -61.08384933 [kcal/mol]    -255.57482559 [kJ/mol]
  --------------------------------------------------------------------------------------------------------

*** Psi4 exiting successfully. Buy a developer a beer!
