                               Psi4 1.8.2 release

  ==> Input File <==

--------------------------------------------------------------------------
MEMORY 60 GB

molecule dimer {
-1 1
Cl     0.000000     0.000000     0.000000
--
0 1
O     -2.199916    -1.571015     1.467295
H     -1.882318    -2.506238     1.325476
H     -1.614150    -0.972649     0.951732
O      0.797188    -2.893542     1.082174
H      0.638924    -1.985322     0.894663
H      1.422652    -3.264080     0.452093
O     -2.721750     0.879998    -1.804564
H     -2.687678     0.053166    -2.351965
H     -2.079379     0.700004    -1.079329
O     -0.897884    -1.728912    -2.615415
H     -0.741817    -1.169751    -1.853770
H     -0.428522    -2.544201    -2.358736

units ang
no_reorient
no_com
symmetry c1
}

set {
basis        aug-cc-pVTZ
scf_type     df
}

energy("sapt2+")
--------------------------------------------------------------------------

  //              Dimer HF             //
    Molecular point group: c1
  Charge       = -1
  Multiplicity = 1
  Basis Set: AUG-CC-PVTZ
    Blend: AUG-CC-PVTZ
  Basis Set: (AUG-CC-PVTZ AUX)
    Blend: AUG-CC-PVTZ-JKFIT
  @DF-RHF Final Energy:  -763.86441913934686
    Total Energy =                       -763.8644191393468645
 Dipole X            :         92.2123309          -89.8587147            2.3536162
 Dipole Y            :        102.4407157         -102.4171826            0.0235331
 Dipole Z            :         35.8419354          -35.8744020           -0.0324666
 Magnitude           :                                                    2.3539578
  //            Monomer A HF           //
    Molecular point group: c1
  Multiplicity = 1
  Basis Set: AUG-CC-PVTZ
    Blend: AUG-CC-PVTZ
  Basis Set: (AUG-CC-PVTZ AUX)
    Blend: AUG-CC-PVTZ-JKFIT
  @DF-RHF Final Energy:  -459.57356605183804
    Total Energy =                       -459.5735660518380428
  //            Monomer B HF           //
    Molecular point group: c1

    Geometry (in Angstrom), charge = 0, multiplicity = 1:

       Center              X                  Y                   Z               Mass
    ------------   -----------------  -----------------  -----------------  -----------------
      Gh(CL)          0.000000000000     0.000000000000     0.000000000000    34.968852682000
         O           -2.199916000000    -1.571015000000     1.467295000000    15.994914619570
         H           -1.882318000000    -2.506238000000     1.325476000000     1.007825032230
         H           -1.614150000000    -0.972649000000     0.951732000000     1.007825032230
         O            0.797188000000    -2.893542000000     1.082174000000    15.994914619570
         H            0.638924000000    -1.985322000000     0.894663000000     1.007825032230
         H            1.422652000000    -3.264080000000     0.452093000000     1.007825032230
         O           -2.721750000000     0.879998000000    -1.804564000000    15.994914619570
         H           -2.687678000000     0.053166000000    -2.351965000000     1.007825032230
         H           -2.079379000000     0.700004000000    -1.079329000000     1.007825032230
         O           -0.897884000000    -1.728912000000    -2.615415000000    15.994914619570
         H           -0.741817000000    -1.169751000000    -1.853770000000     1.007825032230
         H           -0.428522000000    -2.544201000000    -2.358736000000     1.007825032230

  Charge       = 0
  Multiplicity = 1
  Basis Set: AUG-CC-PVTZ
    Blend: AUG-CC-PVTZ
  Basis Set: (AUG-CC-PVTZ AUX)
    Blend: AUG-CC-PVTZ-JKFIT

    Orbital Energies [Eh]
    ---------------------

    Doubly Occupied:

       1A    -20.599433     2A    -20.595964     3A    -20.581874
       4A    -20.574694     5A     -1.385475     6A     -1.381192
       7A     -1.345752     8A     -1.340666     9A     -0.765430
      10A     -0.738480    11A     -0.717135    12A     -0.700540
      13A     -0.619089    14A     -0.606667    15A     -0.584286
      16A     -0.581616    17A     -0.540902    18A     -0.539490
      19A     -0.517028    20A     -0.509324

  @DF-RHF Final Energy:  -304.22649315332012

   => Energetics <=

    Nuclear Repulsion Energy =            117.2939862056860534
    One-Electron Energy =                -652.5908860255422042
    Two-Electron Energy =                 231.0704066665361154
    Total Energy =                       -304.2264931533201207
 Dipole X            :         91.6060419          -89.8587147            1.7473272
 Dipole Y            :        101.6042891         -102.4171826           -0.8128935
 Dipole Z            :         35.6654431          -35.8744020           -0.2089589
 Magnitude           :                                                    1.9384560

    SAPT Results
  --------------------------------------------------------------------------------------------------------
    Electrostatics                -95.67878891 [mEh]     -60.03934648 [kcal/mol]    -251.20462568 [kJ/mol]
      Elst10,r                    -95.78307486 [mEh]     -60.10478690 [kcal/mol]    -251.47842840 [kJ/mol]
      Elst12,r                      0.10428595 [mEh]       0.06544042 [kcal/mol]       0.27380272 [kJ/mol]

    Exchange                       72.07555216 [mEh]      45.22809181 [kcal/mol]     189.23433613 [kJ/mol]
      Exch10                       63.53243797 [mEh]      39.86720672 [kcal/mol]     166.80439290 [kJ/mol]
      Exch10(S^2)                  62.82146176 [mEh]      39.42106241 [kcal/mol]     164.93772512 [kJ/mol]
      Exch11(S^2)                   2.79988718 [mEh]       1.75695573 [kcal/mol]       7.35110277 [kJ/mol]
      Exch12(S^2)                   5.74322702 [mEh]       3.60392936 [kcal/mol]      15.07884045 [kJ/mol]

    Induction                     -35.18009570 [mEh]     -22.07584334 [kcal/mol]     -92.36532855 [kJ/mol]
      Ind20,r                     -52.03935812 [mEh]     -32.65519023 [kcal/mol]    -136.62931592 [kJ/mol]
      Ind22                        -6.91889395 [mEh]      -4.34167150 [kcal/mol]     -18.16555358 [kJ/mol]
      Exch-Ind20,r                 28.94283731 [mEh]      18.16190461 [kcal/mol]      75.98940889 [kJ/mol]
      Exch-Ind22                    3.84809554 [mEh]       2.41471641 [kcal/mol]      10.10317346 [kJ/mol]
      delta HF,r (2)               -9.01277648 [mEh]      -5.65560263 [kcal/mol]     -23.66304140 [kJ/mol]

    Dispersion                    -23.86841879 [mEh]     -14.97765891 [kcal/mol]     -62.66652490 [kJ/mol]
      Disp20                      -27.05882020 [mEh]     -16.97966603 [kcal/mol]     -71.04292266 [kJ/mol]
      Disp21                        1.85465436 [mEh]       1.16381318 [kcal/mol]       4.86939434 [kJ/mol]
      Disp22 (SDQ)                 -0.09587804 [mEh]      -0.06016438 [kcal/mol]      -0.25172775 [kJ/mol]
      Disp22 (T)                   -4.37084039 [mEh]      -2.74274375 [kcal/mol]     -11.47563986 [kJ/mol]
      Est. Disp22 (T)              -4.98844216 [mEh]      -3.13029471 [kcal/mol]     -13.09715309 [kJ/mol]
      Exch-Disp20                   6.42006726 [mEh]       4.02865303 [kcal/mol]      16.85588426 [kJ/mol]

  Total HF                        -64.35993419 [mEh]     -40.38646844 [kcal/mol]    -168.97698393 [kJ/mol]
  Total SAPT0                     -84.99868714 [mEh]     -53.33748144 [kcal/mol]    -223.16402233 [kJ/mol]
  Total SAPT2                     -79.42208540 [mEh]     -49.83811102 [kcal/mol]    -208.52265650 [kJ/mol]
  Total SAPT2+                    -82.65175124 [mEh]     -51.86475693 [kcal/mol]    -217.00214300 [kJ/mol]

  Special recipe for scaled SAPT0 (see Manual):
    Electrostatics sSAPT0         -95.78307486 [mEh]     -60.10478690 [kcal/mol]    -251.47842840 [kJ/mol]
    Exchange sSAPT0                63.53243797 [mEh]      39.86720672 [kcal/mol]     166.80439290 [kJ/mol]
    Induction sSAPT0              -31.11546019 [mEh]     -19.52524605 [kcal/mol]     -81.69362947 [kJ/mol]
    Dispersion sSAPT0             -20.41830113 [mEh]     -12.81267740 [kcal/mol]     -53.60824224 [kJ/mol]
  Total sSAPT0                    -83.78439822 [mEh]     -52.57550364 [kcal/mol]    -219.97590721 [kJ/mol]
  --------------------------------------------------------------------------------------------------------

*** Psi4 exiting successfully. Buy a developer a beer!
