                               Psi4 1.8.2 release

  ==> Input File <==

--------------------------------------------------------------------------
MEMORY 60 GB

molecule dimer {
-1 1
Cl     0.000000     0.000000     0.000000
--
0 1
O      0.024502     3.145214    -1.100846
H     -0.079884     2.231023    -0.803905
H     -0.839084     3.515903    -1.288931
O     -3.198150     0.573138    -0.927404
H     -2.286936     0.664904    -0.721780
H     -3.628705     0.671446    -0.059234
O     -0.392662    -2.420613    -2.381684
H     -0.078206    -1.721059    -1.745198
H      0.148491    -2.349436    -3.168547
O     -0.516218     0.741767    -3.194309
H      0.316690     0.901052    -3.635347
H     -0.443624     0.828168    -2.261763
O     -1.018909     1.789826     2.097121
H     -0.949530     2.709738     1.735634
H     -0.639964     1.169711     1.486154
O      2.936787     0.437537     1.380431
H      2.845975    -0.128141     2.146149
H      2.378137     0.108698     0.647245

units ang
no_reorient
no_com
symmetry c1
}

set {
basis        aug-cc-pVTZ
scf_type     df
}

energy("sapt2+")
--------------------------------------------------------------------------

  //              Dimer HF             //
    Molecular point group: c1
  Charge       = -1
  Multiplicity = 1
  Basis Set: AUG-CC-PVTZ
    Blend: AUG-CC-PVTZ
  Basis Set: (AUG-CC-PVTZ AUX)
    Blend: AUG-CC-PVTZ-JKFIT
  @DF-RHF Final Energy:  -915.98754148776084
    Total Energy =                       -915.9875414877608364
 Dipole X            :         39.7416026          -38.8789229            0.8626797
 Dipole Y            :        -81.2096844           80.7611479           -0.4485365
 Dipole Z            :         77.4841917          -76.8798243            0.6043674
 Magnitude           :                                                    1.1448411
  //            Monomer A HF           //
    Molecular point group: c1
  Multiplicity = 1
  Basis Set: AUG-CC-PVTZ
    Blend: AUG-CC-PVTZ
  Basis Set: (AUG-CC-PVTZ AUX)
    Blend: AUG-CC-PVTZ-JKFIT
  @DF-RHF Final Energy:  -459.57359121556487
    Total Energy =                       -459.5735912155649316
  //            Monomer B HF           //
    Molecular point group: c1

    Geometry (in Angstrom), charge = 0, multiplicity = 1:

       Center              X                  Y                   Z               Mass
    ------------   -----------------  -----------------  -----------------  -----------------
      Gh(CL)          0.000000000000     0.000000000000     0.000000000000    34.968852682000
         O            0.024502000000     3.145214000000    -1.100846000000    15.994914619570
         H           -0.079884000000     2.231023000000    -0.803905000000     1.007825032230
         H           -0.839084000000     3.515903000000    -1.288931000000     1.007825032230
         O           -3.198150000000     0.573138000000    -0.927404000000    15.994914619570
         H           -2.286936000000     0.664904000000    -0.721780000000     1.007825032230
         H           -3.628705000000     0.671446000000    -0.059234000000     1.007825032230
         O           -0.392662000000    -2.420613000000    -2.381684000000    15.994914619570
         H           -0.078206000000    -1.721059000000    -1.745198000000     1.007825032230
         H            0.148491000000    -2.349436000000    -3.168547000000     1.007825032230
         O           -0.516218000000     0.741767000000    -3.194309000000    15.994914619570
         H            0.316690000000     0.901052000000    -3.635347000000     1.007825032230
         H           -0.443624000000     0.828168000000    -2.261763000000     1.007825032230
         O           -1.018909000000     1.789826000000     2.097121000000    15.994914619570
         H           -0.949530000000     2.709738000000     1.735634000000     1.007825032230
         H           -0.639964000000     1.169711000000     1.486154000000     1.007825032230
         O            2.936787000000     0.437537000000     1.380431000000    15.994914619570
         H            2.845975000000    -0.128141000000     2.146149000000     1.007825032230
         H            2.378137000000     0.108698000000     0.647245000000     1.007825032230

  Charge       = 0
  Multiplicity = 1
  Basis Set: AUG-CC-PVTZ
    Blend: AUG-CC-PVTZ
  Basis Set: (AUG-CC-PVTZ AUX)
    Blend: AUG-CC-PVTZ-JKFIT

    Orbital Energies [Eh]
    ---------------------

    Doubly Occupied:

       1A    -20.597629     2A    -20.590200     3A    -20.583876
       4A    -20.580090     5A    -20.579772     6A    -20.570888
       7A     -1.380733     8A     -1.371754     9A     -1.368027
      10A     -1.367046    11A     -1.361901    12A     -1.343567
      13A     -0.763564    14A     -0.751723    15A     -0.744668
      16A     -0.740371    17A     -0.727222    18A     -0.714133
      19A     -0.608025    20A     -0.598652    21A     -0.594637
      22A     -0.588609    23A     -0.588329    24A     -0.578535
      25A     -0.543047    26A     -0.531333    27A     -0.526128
      28A     -0.524470    29A     -0.522027    30A     -0.505249

  @DF-RHF Final Energy:  -456.33710318153391

   => Energetics <=

    Nuclear Repulsion Energy =            236.6740735024299624
    One-Electron Energy =               -1100.3299349185451774
    Two-Electron Energy =                 407.3187582345812530
    Total Energy =                       -456.3371031815339052
 Dipole X            :         39.5284265          -38.8789229            0.6495035
 Dipole Y            :        -80.5853725           80.7611479            0.1757755
 Dipole Z            :         77.1716682          -76.8798243            0.2918439
 Magnitude           :                                                    0.7334335

    SAPT Results
  --------------------------------------------------------------------------------------------------------
    Electrostatics               -120.52642428 [mEh]     -75.63147308 [kcal/mol]    -316.44208335 [kJ/mol]
      Elst10,r                   -120.07156247 [mEh]     -75.34604298 [kcal/mol]    -315.24784384 [kJ/mol]
      Elst12,r                     -0.45486181 [mEh]      -0.28543009 [kcal/mol]      -1.19423951 [kJ/mol]

    Exchange                       92.63559117 [mEh]      58.12971107 [kcal/mol]     243.21471111 [kJ/mol]
      Exch10                       81.29921938 [mEh]      51.01603037 [kcal/mol]     213.45107108 [kJ/mol]
      Exch10(S^2)                  80.37362070 [mEh]      50.43520843 [kcal/mol]     211.02091207 [kJ/mol]
      Exch11(S^2)                   3.76450036 [mEh]       2.36225964 [kcal/mol]       9.88369434 [kJ/mol]
      Exch12(S^2)                   7.57187142 [mEh]       4.75142105 [kcal/mol]      19.87994568 [kJ/mol]

    Induction                     -42.19521255 [mEh]     -26.47789563 [kcal/mol]    -110.78351530 [kJ/mol]
      Ind20,r                     -64.94273658 [mEh]     -40.75218246 [kcal/mol]    -170.50713141 [kJ/mol]
      Ind22                        -9.08802452 [mEh]      -5.70282149 [kcal/mol]     -23.86060510 [kJ/mol]
      Exch-Ind20,r                 35.49802380 [mEh]      22.27534624 [kcal/mol]      93.20004866 [kJ/mol]
      Exch-Ind22                    4.96755954 [mEh]       3.11719067 [kcal/mol]      13.04232578 [kJ/mol]
      delta HF,r (2)               -8.63003479 [mEh]      -5.41542859 [kcal/mol]     -22.65815323 [kJ/mol]

    Dispersion                    -32.14193676 [mEh]     -20.16936982 [kcal/mol]     -84.38864335 [kJ/mol]
      Disp20                      -36.32653691 [mEh]     -22.79524606 [kcal/mol]     -95.37530953 [kJ/mol]
      Disp21                        2.54191536 [mEh]       1.59507597 [kcal/mol]       6.67379787 [kJ/mol]
      Disp22 (SDQ)                 -0.11266039 [mEh]      -0.07069546 [kcal/mol]      -0.29578981 [kJ/mol]
      Disp22 (T)                   -5.85128160 [mEh]      -3.67173464 [kcal/mol]     -15.36253772 [kJ/mol]
      Est. Disp22 (T)              -6.69794924 [mEh]      -4.20302660 [kcal/mol]     -17.58546330 [kJ/mol]
      Exch-Disp20                   8.45329441 [mEh]       5.30452233 [kcal/mol]      22.19412142 [kJ/mol]

  Total HF                        -76.84709066 [mEh]     -48.22227742 [kcal/mol]    -201.76200874 [kJ/mol]
  Total SAPT0                    -104.72033316 [mEh]     -65.71300116 [kcal/mol]    -274.94319685 [kJ/mol]
  Total SAPT2                     -97.95928817 [mEh]     -61.47038137 [kcal/mol]    -257.19207565 [kJ/mol]
  Total SAPT2+                   -102.22798243 [mEh]     -64.14902746 [kcal/mol]    -268.39953089 [kJ/mol]

  Special recipe for scaled SAPT0 (see Manual):
    Electrostatics sSAPT0        -120.07156247 [mEh]     -75.34604298 [kcal/mol]    -315.24784384 [kJ/mol]
    Exchange sSAPT0                81.29921938 [mEh]      51.01603037 [kcal/mol]     213.45107108 [kJ/mol]
    Induction sSAPT0              -36.83416279 [mEh]     -23.11378611 [kcal/mol]     -96.70808109 [kJ/mol]
    Dispersion sSAPT0             -27.57781681 [mEh]     -17.30534131 [kcal/mol]     -72.40554805 [kJ/mol]
  Total sSAPT0                   -103.18432269 [mEh]     -64.74914003 [kcal/mol]    -270.91040189 [kJ/mol]
  --------------------------------------------------------------------------------------------------------

*** Psi4 exiting successfully. Buy a developer a beer!
