                               Psi4 1.8.2 release

  ==> Input File <==

--------------------------------------------------------------------------
MEMORY 60 GB

molecule dimer {
-1 1
Cl     0.000000     0.000000     0.000000
--
0 1
O      2.976125    -0.550762     0.397420
H      3.132872     0.391178     0.501278
H      2.012343    -0.588243     0.284471
O     -1.163506    -2.546937     1.446773
H     -1.325678    -2.254056     2.392364
H     -0.300251    -2.204268     1.183553
O     -0.221715    -2.704216    -1.930969
H     -1.057768    -2.253285    -1.542346
H      0.064879    -2.081925    -2.649334
O     -2.291141     1.148067    -1.830105
H     -1.493164     0.913587    -1.305973
H     -1.983377     1.515748    -2.705823
O      0.895961     1.894020     2.415542
H      0.701813     1.480611     1.545901
H      1.152438     2.807136     2.240683
O      0.316353     2.781308    -1.575780
H      0.288134     1.911789    -1.139865
H      0.658674     3.383529    -0.879089

units ang
no_reorient
no_com
symmetry c1
}

set {
basis        aug-cc-pVTZ
scf_type     df
}

energy("sapt2+")
--------------------------------------------------------------------------

  //              Dimer HF             //
    Molecular point group: c1
  Charge       = -1
  Multiplicity = 1
  Basis Set: AUG-CC-PVTZ
    Blend: AUG-CC-PVTZ
  Basis Set: (AUG-CC-PVTZ AUX)
    Blend: AUG-CC-PVTZ-JKFIT
  @DF-RHF Final Energy:  -915.97180213644651
    Total Energy =                       -915.9718021364465130
 Dipole X            :        -10.9956475           11.2392047            0.2435572
 Dipole Y            :         -4.5717623            6.0351068            1.4633445
 Dipole Z            :         20.3746351          -20.2033115            0.1713237
 Magnitude           :                                                    1.4933349
  //            Monomer A HF           //
    Molecular point group: c1
  Multiplicity = 1
  Basis Set: AUG-CC-PVTZ
    Blend: AUG-CC-PVTZ
  Basis Set: (AUG-CC-PVTZ AUX)
    Blend: AUG-CC-PVTZ-JKFIT
  @DF-RHF Final Energy:  -459.57359391880829
    Total Energy =                       -459.5735939188082853
  //            Monomer B HF           //
    Molecular point group: c1

    Geometry (in Angstrom), charge = 0, multiplicity = 1:

       Center              X                  Y                   Z               Mass
    ------------   -----------------  -----------------  -----------------  -----------------
      Gh(CL)          0.000000000000     0.000000000000     0.000000000000    34.968852682000
         O            2.976125000000    -0.550762000000     0.397420000000    15.994914619570
         H            3.132872000000     0.391178000000     0.501278000000     1.007825032230
         H            2.012343000000    -0.588243000000     0.284471000000     1.007825032230
         O           -1.163506000000    -2.546937000000     1.446773000000    15.994914619570
         H           -1.325678000000    -2.254056000000     2.392364000000     1.007825032230
         H           -0.300251000000    -2.204268000000     1.183553000000     1.007825032230
         O           -0.221715000000    -2.704216000000    -1.930969000000    15.994914619570
         H           -1.057768000000    -2.253285000000    -1.542346000000     1.007825032230
         H            0.064879000000    -2.081925000000    -2.649334000000     1.007825032230
         O           -2.291141000000     1.148067000000    -1.830105000000    15.994914619570
         H           -1.493164000000     0.913587000000    -1.305973000000     1.007825032230
         H           -1.983377000000     1.515748000000    -2.705823000000     1.007825032230
         O            0.895961000000     1.894020000000     2.415542000000    15.994914619570
         H            0.701813000000     1.480611000000     1.545901000000     1.007825032230
         H            1.152438000000     2.807136000000     2.240683000000     1.007825032230
         O            0.316353000000     2.781308000000    -1.575780000000    15.994914619570
         H            0.288134000000     1.911789000000    -1.139865000000     1.007825032230
         H            0.658674000000     3.383529000000    -0.879089000000     1.007825032230

  Charge       = 0
  Multiplicity = 1
  Basis Set: AUG-CC-PVTZ
    Blend: AUG-CC-PVTZ
  Basis Set: (AUG-CC-PVTZ AUX)
    Blend: AUG-CC-PVTZ-JKFIT

    Orbital Energies [Eh]
    ---------------------

    Doubly Occupied:

       1A    -20.610197     2A    -20.603657     3A    -20.588814
       4A    -20.583826     5A    -20.580750     6A    -20.577808
       7A     -1.383895     8A     -1.378365     9A     -1.369664
      10A     -1.347631    11A     -1.345946    12A     -1.333510
      13A     -0.749260    14A     -0.747094    15A     -0.727506
      16A     -0.718056    17A     -0.716167    18A     -0.691729
      19A     -0.622840    20A     -0.609831    21A     -0.604936
      22A     -0.585717    23A     -0.581633    24A     -0.580588
      25A     -0.548431    26A     -0.542440    27A     -0.528042
      28A     -0.517119    29A     -0.515034    30A     -0.511036

  @DF-RHF Final Energy:  -456.33050340486614

   => Energetics <=

    Nuclear Repulsion Energy =            228.6734197879075623
    One-Electron Energy =               -1084.4047963480720682
    Two-Electron Energy =                 399.4008731552984273
    Total Energy =                       -456.3305034048661355
 Dipole X            :        -10.7001444           11.2392047            0.5390603
 Dipole Y            :         -4.0354709            6.0351068            1.9996359
 Dipole Z            :         20.2747308          -20.2033115            0.0714194
 Magnitude           :                                                    2.0722525

    SAPT Results
  --------------------------------------------------------------------------------------------------------
    Electrostatics               -120.71321136 [mEh]     -75.74868374 [kcal/mol]    -316.93249275 [kJ/mol]
      Elst10,r                   -119.48593154 [mEh]     -74.97855403 [kcal/mol]    -313.71027004 [kJ/mol]
      Elst12,r                     -1.22727982 [mEh]      -0.77012971 [kcal/mol]      -3.22222271 [kJ/mol]

    Exchange                      107.00322466 [mEh]      67.14553720 [kcal/mol]     280.93692764 [kJ/mol]
      Exch10                       93.66278474 [mEh]      58.77428477 [kcal/mol]     245.91160746 [kJ/mol]
      Exch10(S^2)                  92.86724085 [mEh]      58.27507344 [kcal/mol]     243.82290725 [kJ/mol]
      Exch11(S^2)                   4.31836990 [mEh]       2.70981802 [kcal/mol]      11.33787860 [kJ/mol]
      Exch12(S^2)                   9.02207002 [mEh]       5.66143441 [kcal/mol]      23.68744158 [kJ/mol]

    Induction                     -46.54650769 [mEh]     -29.20837455 [kcal/mol]    -122.20783911 [kJ/mol]
      Ind20,r                     -73.83074050 [mEh]     -46.32948912 [kcal/mol]    -193.84258247 [kJ/mol]
      Ind22                       -10.52545440 [mEh]      -6.60482235 [kcal/mol]     -27.63457672 [kJ/mol]
      Exch-Ind20,r                 41.10923458 [mEh]      25.79643416 [kcal/mol]     107.93228052 [kJ/mol]
      Exch-Ind22                    5.86061268 [mEh]       3.67758998 [kcal/mol]      15.38703647 [kJ/mol]
      delta HF,r (2)               -9.16016006 [mEh]      -5.74808722 [kcal/mol]     -24.04999692 [kJ/mol]

    Dispersion                    -36.28929929 [mEh]     -22.77187910 [kcal/mol]     -95.27754216 [kJ/mol]
      Disp20                      -41.21871809 [mEh]     -25.86513610 [kcal/mol]    -108.21972944 [kJ/mol]
      Disp21                        2.91378286 [mEh]       1.82842635 [kcal/mol]       7.65013584 [kJ/mol]
      Disp22 (SDQ)                 -0.14834204 [mEh]      -0.09308603 [kcal/mol]      -0.38947196 [kJ/mol]
      Disp22 (T)                   -6.67256914 [mEh]      -4.18710035 [kcal/mol]     -17.51882785 [kJ/mol]
      Est. Disp22 (T)              -7.63227865 [mEh]      -4.78932716 [kcal/mol]     -20.03854483 [kJ/mol]
      Exch-Disp20                   9.79625663 [mEh]       6.14724384 [kcal/mol]      25.72006824 [kJ/mol]

  Total HF                        -67.70481277 [mEh]     -42.48541143 [kcal/mol]    -177.75896144 [kJ/mol]
  Total SAPT0                     -99.12727423 [mEh]     -62.20330369 [kcal/mol]    -260.25862264 [kJ/mol]
  Total SAPT2                     -91.67895585 [mEh]     -57.52941334 [kcal/mol]    -240.70306542 [kJ/mol]
  Total SAPT2+                    -96.54579368 [mEh]     -60.58340019 [kcal/mol]    -253.48094638 [kJ/mol]

  Special recipe for scaled SAPT0 (see Manual):
    Electrostatics sSAPT0        -119.48593154 [mEh]     -74.97855403 [kcal/mol]    -313.71027004 [kJ/mol]
    Exchange sSAPT0                93.66278474 [mEh]      58.77428477 [kcal/mol]     245.91160746 [kJ/mol]
    Induction sSAPT0              -40.81610745 [mEh]     -25.61249411 [kcal/mol]    -107.16267535 [kJ/mol]
    Dispersion sSAPT0             -31.16854078 [mEh]     -19.55855463 [kcal/mol]     -81.83299255 [kJ/mol]
  Total sSAPT0                    -97.80779503 [mEh]     -61.37531799 [kcal/mol]    -256.79433048 [kJ/mol]
  --------------------------------------------------------------------------------------------------------

*** Psi4 exiting successfully. Buy a developer a beer!
