                               Psi4 1.8.2 release

  ==> Input File <==

--------------------------------------------------------------------------
MEMORY 60 GB

molecule dimer {
-1 1
Cl     0.000000     0.000000     0.000000
--
0 1
O     -3.072186    -0.943385    -1.151340
H     -2.109297    -0.833410    -1.232254
H     -3.480580    -0.069519    -1.336406
O     -2.170564     2.085398    -0.537936
H     -1.492369     1.468992    -0.217548
H     -1.948541     2.234535    -1.504709
O      1.715914     2.702458    -1.046000
H      2.231407     2.871279    -1.844869
H      1.155635     1.946575    -1.231334
O     -0.734965     0.285092    -3.206055
H     -0.613228     0.151032    -2.243593
H     -0.192858     1.041459    -3.457951
O     -1.691451    -2.961899     0.571525
H     -1.220428    -3.805275     0.457431
H     -1.045938    -2.256831     0.320946

units ang
no_reorient
no_com
symmetry c1
}

set {
basis        aug-cc-pVTZ
scf_type     df
}

energy("sapt2+")
--------------------------------------------------------------------------

  //              Dimer HF             //
    Molecular point group: c1
  Charge       = -1
  Multiplicity = 1
  Basis Set: AUG-CC-PVTZ
    Blend: AUG-CC-PVTZ
  Basis Set: (AUG-CC-PVTZ AUX)
    Blend: AUG-CC-PVTZ-JKFIT
  @DF-RHF Final Energy:  -839.91360210793562
    Total Energy =                       -839.9136021079356169
 Dipole X            :        109.0667029         -106.4713519            2.5953510
 Dipole Y            :        -22.7571384           22.8470704            0.0899320
 Dipole Z            :        104.1362156         -104.4049779           -0.2687623
 Magnitude           :                                                    2.6107792
  //            Monomer A HF           //
    Molecular point group: c1
  Multiplicity = 1
  Basis Set: AUG-CC-PVTZ
    Blend: AUG-CC-PVTZ
  Basis Set: (AUG-CC-PVTZ AUX)
    Blend: AUG-CC-PVTZ-JKFIT
  @DF-RHF Final Energy:  -459.57357222658464
    Total Energy =                       -459.5735722265846448
  //            Monomer B HF           //
    Molecular point group: c1

    Geometry (in Angstrom), charge = 0, multiplicity = 1:

       Center              X                  Y                   Z               Mass
    ------------   -----------------  -----------------  -----------------  -----------------
      Gh(CL)          0.000000000000     0.000000000000     0.000000000000    34.968852682000
         O           -3.072186000000    -0.943385000000    -1.151340000000    15.994914619570
         H           -2.109297000000    -0.833410000000    -1.232254000000     1.007825032230
         H           -3.480580000000    -0.069519000000    -1.336406000000     1.007825032230
         O           -2.170564000000     2.085398000000    -0.537936000000    15.994914619570
         H           -1.492369000000     1.468992000000    -0.217548000000     1.007825032230
         H           -1.948541000000     2.234535000000    -1.504709000000     1.007825032230
         O            1.715914000000     2.702458000000    -1.046000000000    15.994914619570
         H            2.231407000000     2.871279000000    -1.844869000000     1.007825032230
         H            1.155635000000     1.946575000000    -1.231334000000     1.007825032230
         O           -0.734965000000     0.285092000000    -3.206055000000    15.994914619570
         H           -0.613228000000     0.151032000000    -2.243593000000     1.007825032230
         H           -0.192858000000     1.041459000000    -3.457951000000     1.007825032230
         O           -1.691451000000    -2.961899000000     0.571525000000    15.994914619570
         H           -1.220428000000    -3.805275000000     0.457431000000     1.007825032230
         H           -1.045938000000    -2.256831000000     0.320946000000     1.007825032230

  Charge       = 0
  Multiplicity = 1
  Basis Set: AUG-CC-PVTZ
    Blend: AUG-CC-PVTZ
  Basis Set: (AUG-CC-PVTZ AUX)
    Blend: AUG-CC-PVTZ-JKFIT

    Orbital Energies [Eh]
    ---------------------

    Doubly Occupied:

       1A    -20.611063     2A    -20.594869     3A    -20.592459
       4A    -20.569334     5A    -20.559820     6A     -1.387706
       7A     -1.377055     8A     -1.360362     9A     -1.340452
      10A     -1.332298    11A     -0.759727    12A     -0.747561
      13A     -0.723590    14A     -0.712937    15A     -0.697282
      16A     -0.620327    17A     -0.604891    18A     -0.598642
      19A     -0.577892    20A     -0.567793    21A     -0.548537
      22A     -0.536552    23A     -0.526280    24A     -0.505796
      25A     -0.496381

  @DF-RHF Final Energy:  -380.27304069716695

   => Energetics <=

    Nuclear Repulsion Energy =            176.1315628393994359
    One-Electron Energy =                -874.9099914288935906
    Two-Electron Energy =                 318.5053878923272350
    Total Energy =                       -380.2730406971669481
 Dipole X            :        108.4248228         -106.4713519            1.9534709
 Dipole Y            :        -22.5306668           22.8470704            0.3164036
 Dipole Z            :        103.3412367         -104.4049779           -1.0637412
 Magnitude           :                                                    2.2467099

    SAPT Results
  --------------------------------------------------------------------------------------------------------
    Electrostatics                -93.85612690 [mEh]     -58.89560880 [kcal/mol]    -246.41922722 [kJ/mol]
      Elst10,r                    -93.61539589 [mEh]     -58.74454781 [kcal/mol]    -245.78718805 [kJ/mol]
      Elst12,r                     -0.24073100 [mEh]      -0.15106099 [kcal/mol]      -0.63203916 [kJ/mol]

    Exchange                       68.66781473 [mEh]      43.08970428 [kcal/mol]     180.28732273 [kJ/mol]
      Exch10                       60.22411511 [mEh]      37.79120278 [kcal/mol]     158.11839243 [kJ/mol]
      Exch10(S^2)                  59.50507138 [mEh]      37.33999603 [kcal/mol]     156.23054338 [kJ/mol]
      Exch11(S^2)                   2.71826637 [mEh]       1.70573790 [kcal/mol]       7.13680738 [kJ/mol]
      Exch12(S^2)                   5.72543325 [mEh]       3.59276360 [kcal/mol]      15.03212292 [kJ/mol]

    Induction                     -36.82873138 [mEh]     -23.11037785 [kcal/mol]     -96.69382091 [kJ/mol]
      Ind20,r                     -52.67796633 [mEh]     -33.05592293 [kcal/mol]    -138.30598155 [kJ/mol]
      Ind22                        -6.80648744 [mEh]      -4.27113535 [kcal/mol]     -17.87043031 [kJ/mol]
      Exch-Ind20,r                 27.67337345 [mEh]      17.36530401 [kcal/mol]      72.65643199 [kJ/mol]
      Exch-Ind22                    3.57565946 [mEh]       2.24376019 [kcal/mol]       9.38789263 [kJ/mol]
      delta HF,r (2)               -8.59331052 [mEh]      -5.39238376 [kcal/mol]     -22.56173366 [kJ/mol]

    Dispersion                    -24.76558806 [mEh]     -15.54064113 [kcal/mol]     -65.02204249 [kJ/mol]
      Disp20                      -27.86545623 [mEh]     -17.48583778 [kcal/mol]     -73.16074526 [kJ/mol]
      Disp21                        2.07218151 [mEh]       1.30031353 [kcal/mol]       5.44051181 [kJ/mol]
      Disp22 (SDQ)                 -0.13166440 [mEh]      -0.08262066 [kcal/mol]      -0.34568483 [kJ/mol]
      Disp22 (T)                   -4.54147343 [mEh]      -2.84981761 [kcal/mol]     -11.92363686 [kJ/mol]
      Est. Disp22 (T)              -5.21147581 [mEh]      -3.27025045 [kcal/mol]     -13.68272787 [kJ/mol]
      Exch-Disp20                   6.37082688 [mEh]       3.99775422 [kcal/mol]      16.72660366 [kJ/mol]

  Total HF                        -66.98918418 [mEh]     -42.03634772 [kcal/mol]    -175.88007884 [kJ/mol]
  Total SAPT0                     -88.48381354 [mEh]     -55.52443127 [kcal/mol]    -232.31422045 [kJ/mol]
  Total SAPT2                     -83.51167290 [mEh]     -52.40436592 [kcal/mol]    -219.25986700 [kJ/mol]
  Total SAPT2+                    -86.78263160 [mEh]     -54.45692349 [kcal/mol]    -227.84776789 [kJ/mol]

  Special recipe for scaled SAPT0 (see Manual):
    Electrostatics sSAPT0         -93.61539589 [mEh]     -58.74454781 [kcal/mol]    -245.78718805 [kJ/mol]
    Exchange sSAPT0                60.22411511 [mEh]      37.79120278 [kcal/mol]     158.11839243 [kJ/mol]
    Induction sSAPT0              -32.58253881 [mEh]     -20.44585178 [kcal/mol]     -85.54544386 [kJ/mol]
    Dispersion sSAPT0             -21.26087715 [mEh]     -13.34140183 [kcal/mol]     -55.82042528 [kJ/mol]
  Total sSAPT0                    -87.23469675 [mEh]     -54.74059865 [kcal/mol]    -229.03466476 [kJ/mol]
  --------------------------------------------------------------------------------------------------------

*** Psi4 exiting successfully. Buy a developer a beer!
