                               Psi4 1.8.2 release

  ==> Input File <==

--------------------------------------------------------------------------
MEMORY 60 GB

molecule dimer {
-1 1
Cl     0.000000     0.000000     0.000000
--
0 1
O      0.276022    -1.334830     2.896328
H     -0.211761    -1.725104     2.182119
H      0.225626    -0.372405     2.733340
O     -0.259441    -2.755488    -2.002064
H     -0.286332    -3.342753    -1.273505
H     -0.138063    -1.901984    -1.552411
O     -1.584387     2.452541    -1.393069
H     -0.945988     3.217678    -1.519608
H     -1.143003     1.748347    -0.885128
O      3.243922     0.276549    -1.143430
H      3.813885    -0.022833    -1.928896
H      3.119205    -0.556862    -0.576049
O      0.948908     1.827757    -2.782125
H      0.552450     2.669854    -3.084036
H      1.588809     1.979159    -2.100038
O     -1.225019     2.327001     2.155250
H     -1.056340     1.708565     1.443285
H     -0.593127     1.978656     2.772432
O     -2.840213    -1.201275     0.058620
H     -2.064020    -0.701230    -0.168248
H     -2.637975    -1.778049     0.799946
O      2.501855    -2.019999     0.703643
H      3.050098    -1.823498     1.470441
H      1.634282    -1.604580     0.874442

units ang
no_reorient
no_com
symmetry c1
}

set {
basis        aug-cc-pVTZ
scf_type     df
}

energy("sapt2+")
--------------------------------------------------------------------------

  //              Dimer HF             //
    Molecular point group: c1
  Charge       = -1
  Multiplicity = 1
  Basis Set: AUG-CC-PVTZ
    Blend: AUG-CC-PVTZ
  Basis Set: (AUG-CC-PVTZ AUX)
    Blend: AUG-CC-PVTZ-JKFIT
  @DF-RHF Final Energy: -1068.09888973202260
    Total Energy =                      -1068.0988897320225988
 Dipole X            :        -23.3053646           25.3240724            2.0187079
 Dipole Y            :          7.6576045           -7.4625115            0.1950931
 Dipole Z            :         25.6675255          -24.3145202            1.3530053
 Magnitude           :                                                    2.4380045
  //            Monomer A HF           //
    Molecular point group: c1
  Multiplicity = 1
  Basis Set: AUG-CC-PVTZ
    Blend: AUG-CC-PVTZ
  Basis Set: (AUG-CC-PVTZ AUX)
    Blend: AUG-CC-PVTZ-JKFIT
  @DF-RHF Final Energy:  -459.57360479799445
    Total Energy =                       -459.5736047979944487
  //            Monomer B HF           //
    Molecular point group: c1

    Geometry (in Angstrom), charge = 0, multiplicity = 1:

       Center              X                  Y                   Z               Mass
    ------------   -----------------  -----------------  -----------------  -----------------
      Gh(CL)          0.000000000000     0.000000000000     0.000000000000    34.968852682000
         O            0.276022000000    -1.334830000000     2.896328000000    15.994914619570
         H           -0.211761000000    -1.725104000000     2.182119000000     1.007825032230
         H            0.225626000000    -0.372405000000     2.733340000000     1.007825032230
         O           -0.259441000000    -2.755488000000    -2.002064000000    15.994914619570
         H           -0.286332000000    -3.342753000000    -1.273505000000     1.007825032230
         H           -0.138063000000    -1.901984000000    -1.552411000000     1.007825032230
         O           -1.584387000000     2.452541000000    -1.393069000000    15.994914619570
         H           -0.945988000000     3.217678000000    -1.519608000000     1.007825032230
         H           -1.143003000000     1.748347000000    -0.885128000000     1.007825032230
         O            3.243922000000     0.276549000000    -1.143430000000    15.994914619570
         H            3.813885000000    -0.022833000000    -1.928896000000     1.007825032230
         H            3.119205000000    -0.556862000000    -0.576049000000     1.007825032230
         O            0.948908000000     1.827757000000    -2.782125000000    15.994914619570
         H            0.552450000000     2.669854000000    -3.084036000000     1.007825032230
         H            1.588809000000     1.979159000000    -2.100038000000     1.007825032230
         O           -1.225019000000     2.327001000000     2.155250000000    15.994914619570
         H           -1.056340000000     1.708565000000     1.443285000000     1.007825032230
         H           -0.593127000000     1.978656000000     2.772432000000     1.007825032230
         O           -2.840213000000    -1.201275000000     0.058620000000    15.994914619570
         H           -2.064020000000    -0.701230000000    -0.168248000000     1.007825032230
         H           -2.637975000000    -1.778049000000     0.799946000000     1.007825032230
         O            2.501855000000    -2.019999000000     0.703643000000    15.994914619570
         H            3.050098000000    -1.823498000000     1.470441000000     1.007825032230
         H            1.634282000000    -1.604580000000     0.874442000000     1.007825032230

  Charge       = 0
  Multiplicity = 1
  Basis Set: AUG-CC-PVTZ
    Blend: AUG-CC-PVTZ
  Basis Set: (AUG-CC-PVTZ AUX)
    Blend: AUG-CC-PVTZ-JKFIT

    Orbital Energies [Eh]
    ---------------------

    Doubly Occupied:

       1A    -20.623054     2A    -20.606390     3A    -20.597285
       4A    -20.589446     5A    -20.574554     6A    -20.572986
       7A    -20.572769     8A    -20.562256     9A     -1.406788
      10A     -1.388121    11A     -1.386682    12A     -1.375444
      13A     -1.362681    14A     -1.347257    15A     -1.338226
      16A     -1.325062    17A     -0.770782    18A     -0.754097
      19A     -0.751629    20A     -0.733359    21A     -0.726625
      22A     -0.717446    23A     -0.713052    24A     -0.693222
      25A     -0.638473    26A     -0.623858    27A     -0.623734
      28A     -0.599626    29A     -0.594418    30A     -0.581374
      31A     -0.577983    32A     -0.568014    33A     -0.563181
      34A     -0.541852    35A     -0.539024    36A     -0.533257
      37A     -0.522461    38A     -0.514309    39A     -0.506160
      40A     -0.493653

  @DF-RHF Final Energy:  -608.44949415282679

   => Energetics <=

    Nuclear Repulsion Energy =            399.7052400952003381
    One-Electron Energy =               -1635.2882865352842146
    Two-Electron Energy =                 627.1335522872569754
    Total Energy =                       -608.4494941528267873
 Dipole X            :        -23.5988294           25.3240724            1.7252430
 Dipole Y            :          7.5045897           -7.4625115            0.0420783
 Dipole Z            :         25.8865470          -24.3145202            1.5720267
 Magnitude           :                                                    2.3344168

    SAPT Results
  --------------------------------------------------------------------------------------------------------
    Electrostatics               -119.22200652 [mEh]     -74.81293857 [kcal/mol]    -313.01733499 [kJ/mol]
      Elst10,r                   -118.35130328 [mEh]     -74.26656404 [kcal/mol]    -310.73130395 [kJ/mol]
      Elst12,r                     -0.87070324 [mEh]      -0.54637453 [kcal/mol]      -2.28603105 [kJ/mol]

    Exchange                       93.16340012 [mEh]      58.46091619 [kcal/mol]     244.60047333 [kJ/mol]
      Exch10                       80.52375224 [mEh]      50.52941739 [kcal/mol]     211.41508238 [kJ/mol]
      Exch10(S^2)                  80.02127550 [mEh]      50.21410848 [kcal/mol]     210.09582988 [kJ/mol]
      Exch11(S^2)                   3.76541335 [mEh]       2.36283255 [kcal/mol]       9.88609138 [kJ/mol]
      Exch12(S^2)                   8.87423454 [mEh]       5.56866625 [kcal/mol]      23.29929957 [kJ/mol]

    Induction                     -42.71423941 [mEh]     -26.80358990 [kcal/mol]    -112.14622013 [kJ/mol]
      Ind20,r                     -68.61621276 [mEh]     -43.05732356 [kcal/mol]    -180.15184177 [kJ/mol]
      Ind22                       -10.23603105 [mEh]      -6.42320646 [kcal/mol]     -26.87469582 [kJ/mol]
      Exch-Ind20,r                 36.76829632 [mEh]      23.07245428 [kcal/mol]      96.53514869 [kJ/mol]
      Exch-Ind22                    5.48502180 [mEh]       3.44190314 [kcal/mol]      14.40092275 [kJ/mol]
      delta HF,r (2)               -6.11531373 [mEh]      -3.83741730 [kcal/mol]     -16.05575398 [kJ/mol]

    Dispersion                    -36.50434708 [mEh]     -22.90682362 [kcal/mol]     -95.84215005 [kJ/mol]
      Disp20                      -40.66531480 [mEh]     -25.51787029 [kcal/mol]    -106.76676930 [kJ/mol]
      Disp21                        3.02258374 [mEh]       1.89669993 [kcal/mol]       7.93579252 [kJ/mol]
      Disp22 (SDQ)                 -0.37386345 [mEh]      -0.23460286 [kcal/mol]      -0.98157836 [kJ/mol]
      Disp22 (T)                   -6.70159223 [mEh]      -4.20531261 [kcal/mol]     -17.59502797 [kJ/mol]
      Est. Disp22 (T)              -7.70758686 [mEh]      -4.83658377 [kcal/mol]     -20.23626651 [kJ/mol]
      Exch-Disp20                   9.21983430 [mEh]       5.78553337 [kcal/mol]      24.20667161 [kJ/mol]

  Total HF                        -75.79078120 [mEh]     -47.55943323 [kcal/mol]    -198.98866863 [kJ/mol]
  Total SAPT0                    -107.23626170 [mEh]     -67.29177015 [kcal/mol]    -281.54876632 [kJ/mol]
  Total SAPT2                    -100.21832631 [mEh]     -62.88794921 [kcal/mol]    -263.12317948 [kJ/mol]
  Total SAPT2+                   -105.27719288 [mEh]     -66.06243591 [kcal/mol]    -276.40523184 [kJ/mol]

  Special recipe for scaled SAPT0 (see Manual):
    Electrostatics sSAPT0        -118.35130328 [mEh]     -74.26656404 [kcal/mol]    -310.73130395 [kJ/mol]
    Exchange sSAPT0                80.52375224 [mEh]      50.52941739 [kcal/mol]     211.41508238 [kJ/mol]
    Induction sSAPT0              -37.26623548 [mEh]     -23.38491582 [kcal/mol]     -97.84248778 [kJ/mol]
    Dispersion sSAPT0             -31.27070560 [mEh]     -19.62266402 [kcal/mol]     -82.10122624 [kJ/mol]
  Total sSAPT0                   -106.36449212 [mEh]     -66.74472648 [kcal/mol]    -279.25993559 [kJ/mol]
  --------------------------------------------------------------------------------------------------------

*** Psi4 exiting successfully. Buy a developer a beer!
