                               Psi4 1.8.2 release

  ==> Input File <==

--------------------------------------------------------------------------
MEMORY 60 GB

molecule dimer {
-1 1
Cl     0.000000     0.000000     0.000000
--
0 1
O      0.342923    -3.144879    -0.065421
H      0.545982    -2.209152     0.245600
H      0.550095    -3.627707     0.755600
O      1.545164    -1.036990    -2.802892
H      1.062947    -0.596055    -2.031424
H      1.045874    -1.828531    -2.968351
O     -2.202907    -0.562551    -2.232048
H     -2.116080    -1.498992    -1.934838
H     -1.695715    -0.086551    -1.598454
O      2.746028     1.913676     0.329460
H      1.934738     1.451620     0.279372
H      3.036698     2.122048     1.297810

units ang
no_reorient
no_com
symmetry c1
}

set {
basis        aug-cc-pVTZ
scf_type     df
}

energy("sapt2+")
--------------------------------------------------------------------------

  //              Dimer HF             //
    Molecular point group: c1
  Charge       = -1
  Multiplicity = 1
  Basis Set: AUG-CC-PVTZ
    Blend: AUG-CC-PVTZ
  Basis Set: (AUG-CC-PVTZ AUX)
    Blend: AUG-CC-PVTZ-JKFIT
  @DF-RHF Final Energy:  -763.85188646861104
    Total Energy =                       -763.8518864686110419
 Dipole X            :        -45.5897124           45.0023216           -0.5873908
 Dipole Y            :         54.5782997          -54.6495038           -0.0712041
 Dipole Z            :         86.1227691          -83.3782939            2.7444752
 Magnitude           :                                                    2.8075331
  //            Monomer A HF           //
    Molecular point group: c1
  Multiplicity = 1
  Basis Set: AUG-CC-PVTZ
    Blend: AUG-CC-PVTZ
  Basis Set: (AUG-CC-PVTZ AUX)
    Blend: AUG-CC-PVTZ-JKFIT
  @DF-RHF Final Energy:  -459.57356328656186
    Total Energy =                       -459.5735632865618641
  //            Monomer B HF           //
    Molecular point group: c1

    Geometry (in Angstrom), charge = 0, multiplicity = 1:

       Center              X                  Y                   Z               Mass
    ------------   -----------------  -----------------  -----------------  -----------------
      Gh(CL)          0.000000000000     0.000000000000     0.000000000000    34.968852682000
         O            0.342923000000    -3.144879000000    -0.065421000000    15.994914619570
         H            0.545982000000    -2.209152000000     0.245600000000     1.007825032230
         H            0.550095000000    -3.627707000000     0.755600000000     1.007825032230
         O            1.545164000000    -1.036990000000    -2.802892000000    15.994914619570
         H            1.062947000000    -0.596055000000    -2.031424000000     1.007825032230
         H            1.045874000000    -1.828531000000    -2.968351000000     1.007825032230
         O           -2.202907000000    -0.562551000000    -2.232048000000    15.994914619570
         H           -2.116080000000    -1.498992000000    -1.934838000000     1.007825032230
         H           -1.695715000000    -0.086551000000    -1.598454000000     1.007825032230
         O            2.746028000000     1.913676000000     0.329460000000    15.994914619570
         H            1.934738000000     1.451620000000     0.279372000000     1.007825032230
         H            3.036698000000     2.122048000000     1.297810000000     1.007825032230

  Charge       = 0
  Multiplicity = 1
  Basis Set: AUG-CC-PVTZ
    Blend: AUG-CC-PVTZ
  Basis Set: (AUG-CC-PVTZ AUX)
    Blend: AUG-CC-PVTZ-JKFIT

    Orbital Energies [Eh]
    ---------------------

    Doubly Occupied:

       1A    -20.598079     2A    -20.577518     3A    -20.575842
       4A    -20.566774     5A     -1.363919     6A     -1.359000
       7A     -1.347281     8A     -1.338117     9A     -0.729859
      10A     -0.719355    11A     -0.713383    12A     -0.700566
      13A     -0.612702    14A     -0.592786    15A     -0.575926
      16A     -0.572255    17A     -0.532555    18A     -0.517608
      19A     -0.515684    20A     -0.503065

  @DF-RHF Final Energy:  -304.21895998813432

   => Energetics <=

    Nuclear Repulsion Energy =            107.8692676198596416
    One-Electron Energy =                -634.1519033250167467
    Two-Electron Energy =                 222.0636757170227611
    Total Energy =                       -304.2189599881343156
 Dipole X            :        -45.3110849           45.0023216           -0.3087634
 Dipole Y            :         54.1619052          -54.6495038           -0.4875986
 Dipole Z            :         85.6900105          -83.3782939            2.3117166
 Magnitude           :                                                    2.3826709

    SAPT Results
  --------------------------------------------------------------------------------------------------------
    Electrostatics                -84.95516507 [mEh]     -53.31017093 [kcal/mol]    -223.04975516 [kJ/mol]
      Elst10,r                    -84.91974974 [mEh]     -53.28794747 [kcal/mol]    -222.95677223 [kJ/mol]
      Elst12,r                     -0.03541533 [mEh]      -0.02222346 [kcal/mol]      -0.09298294 [kJ/mol]

    Exchange                       57.77828812 [mEh]      36.25642317 [kcal/mol]     151.69687455 [kJ/mol]
      Exch10                       50.63697985 [mEh]      31.77518458 [kcal/mol]     132.94737228 [kJ/mol]
      Exch10(S^2)                  50.35652179 [mEh]      31.59919449 [kcal/mol]     132.21102974 [kJ/mol]
      Exch11(S^2)                   2.35807228 [mEh]       1.47971269 [kcal/mol]       6.19111792 [kJ/mol]
      Exch12(S^2)                   4.78323599 [mEh]       3.00152590 [kcal/mol]      12.55838435 [kJ/mol]

    Induction                     -27.60305644 [mEh]     -17.32117942 [kcal/mol]     -72.47181470 [kJ/mol]
      Ind20,r                     -41.60114399 [mEh]     -26.10511197 [kcal/mol]    -109.22378849 [kJ/mol]
      Ind22                        -5.60010410 [mEh]      -3.51411838 [kcal/mol]     -14.70307129 [kJ/mol]
      Exch-Ind20,r                 22.86142192 [mEh]      14.34575884 [kcal/mol]      60.02265497 [kJ/mol]
      Exch-Ind22                    3.07747168 [mEh]       1.93114264 [kcal/mol]       8.07990079 [kJ/mol]
      delta HF,r (2)               -6.34070196 [mEh]      -3.97885055 [kcal/mol]     -16.64751069 [kJ/mol]

    Dispersion                    -21.16689017 [mEh]     -13.28242411 [kcal/mol]     -55.57366248 [kJ/mol]
      Disp20                      -23.70028300 [mEh]     -14.87215211 [kcal/mol]     -62.22508443 [kJ/mol]
      Disp21                        1.43419974 [mEh]       0.89997393 [kcal/mol]       3.76549090 [kJ/mol]
      Disp22 (SDQ)                 -0.01704741 [mEh]      -0.01069741 [kcal/mol]      -0.04475796 [kJ/mol]
      Disp22 (T)                   -3.81441962 [mEh]      -2.39358445 [kcal/mol]     -10.01475734 [kJ/mol]
      Est. Disp22 (T)              -4.38836280 [mEh]      -2.75373923 [kcal/mol]     -11.52164494 [kJ/mol]
      Exch-Disp20                   5.50460329 [mEh]       3.45419071 [kcal/mol]      14.45233395 [kJ/mol]

  Total HF                        -59.36319391 [mEh]     -37.25096658 [kcal/mol]    -155.85804415 [kJ/mol]
  Total SAPT0                     -77.55887362 [mEh]     -48.66892797 [kcal/mol]    -203.63079464 [kJ/mol]
  Total SAPT2                     -72.97561310 [mEh]     -45.79288858 [kcal/mol]    -191.59744580 [kJ/mol]
  Total SAPT2+                    -75.94682356 [mEh]     -47.65735129 [kcal/mol]    -199.39835780 [kJ/mol]

  Special recipe for scaled SAPT0 (see Manual):
    Electrostatics sSAPT0         -84.91974974 [mEh]     -53.28794747 [kcal/mol]    -222.95677223 [kJ/mol]
    Exchange sSAPT0                50.63697985 [mEh]      31.77518458 [kcal/mol]     132.94737228 [kJ/mol]
    Induction sSAPT0              -24.69631613 [mEh]     -15.49717234 [kcal/mol]     -64.84016906 [kJ/mol]
    Dispersion sSAPT0             -18.10319370 [mEh]     -11.35992555 [kcal/mol]     -47.52992851 [kJ/mol]
  Total sSAPT0                    -77.08227972 [mEh]     -48.36986078 [kcal/mol]    -202.37949752 [kJ/mol]
  --------------------------------------------------------------------------------------------------------

*** Psi4 exiting successfully. Buy a developer a beer!
