                               Psi4 1.8.2 release

  ==> Input File <==

--------------------------------------------------------------------------
MEMORY 60 GB

molecule dimer {
-1 1
Cl     0.000000     0.000000     0.000000
--
0 1
O     -0.769529    -2.966252     1.114406
H     -0.491011    -2.049040     1.060829
H     -0.099668    -3.431801     1.746687
O     -2.572451     0.785674     2.137195
H     -2.971007    -0.007188     2.353863
H     -1.967522     0.455536     1.391827
O      0.248544     0.677850     3.199615
H      0.085963     0.586761     2.244952
H      0.904498     1.336920     3.314940
O      1.375017     2.839319     0.546590
H      0.925526     1.985155     0.440289
H      1.962844     2.854615    -0.199516
O      2.555530    -2.187632     0.855224
H      2.277326    -2.669991     1.647633
H      1.863637    -1.523641     0.765483

units ang
no_reorient
no_com
symmetry c1
}

set {
basis        aug-cc-pVTZ
scf_type     df
}

energy("sapt2+")
--------------------------------------------------------------------------

  //              Dimer HF             //
    Molecular point group: c1
  Charge       = -1
  Multiplicity = 1
  Basis Set: AUG-CC-PVTZ
    Blend: AUG-CC-PVTZ
  Basis Set: (AUG-CC-PVTZ AUX)
    Blend: AUG-CC-PVTZ-JKFIT
  @DF-RHF Final Energy:  -839.92091250279373
    Total Energy =                       -839.9209125027937262
 Dipole X            :        -16.9814816           17.3618096            0.3803280
 Dipole Y            :         17.0909714          -17.5196547           -0.4286833
 Dipole Z            :       -148.0908852          146.6261688           -1.4647165
 Magnitude           :                                                    1.5728360
  //            Monomer A HF           //
    Molecular point group: c1
  Multiplicity = 1
  Basis Set: AUG-CC-PVTZ
    Blend: AUG-CC-PVTZ
  Basis Set: (AUG-CC-PVTZ AUX)
    Blend: AUG-CC-PVTZ-JKFIT
  @DF-RHF Final Energy:  -459.57357674858486
    Total Energy =                       -459.5735767485848555
  //            Monomer B HF           //
    Molecular point group: c1

    Geometry (in Angstrom), charge = 0, multiplicity = 1:

       Center              X                  Y                   Z               Mass
    ------------   -----------------  -----------------  -----------------  -----------------
      Gh(CL)          0.000000000000     0.000000000000     0.000000000000    34.968852682000
         O           -0.769529000000    -2.966252000000     1.114406000000    15.994914619570
         H           -0.491011000000    -2.049040000000     1.060829000000     1.007825032230
         H           -0.099668000000    -3.431801000000     1.746687000000     1.007825032230
         O           -2.572451000000     0.785674000000     2.137195000000    15.994914619570
         H           -2.971007000000    -0.007188000000     2.353863000000     1.007825032230
         H           -1.967522000000     0.455536000000     1.391827000000     1.007825032230
         O            0.248544000000     0.677850000000     3.199615000000    15.994914619570
         H            0.085963000000     0.586761000000     2.244952000000     1.007825032230
         H            0.904498000000     1.336920000000     3.314940000000     1.007825032230
         O            1.375017000000     2.839319000000     0.546590000000    15.994914619570
         H            0.925526000000     1.985155000000     0.440289000000     1.007825032230
         H            1.962844000000     2.854615000000    -0.199516000000     1.007825032230
         O            2.555530000000    -2.187632000000     0.855224000000    15.994914619570
         H            2.277326000000    -2.669991000000     1.647633000000     1.007825032230
         H            1.863637000000    -1.523641000000     0.765483000000     1.007825032230

  Charge       = 0
  Multiplicity = 1
  Basis Set: AUG-CC-PVTZ
    Blend: AUG-CC-PVTZ
  Basis Set: (AUG-CC-PVTZ AUX)
    Blend: AUG-CC-PVTZ-JKFIT

    Orbital Energies [Eh]
    ---------------------

    Doubly Occupied:

       1A    -20.597142     2A    -20.590413     3A    -20.589631
       4A    -20.576846     5A    -20.575348     6A     -1.375246
       7A     -1.371195     8A     -1.365704     9A     -1.360998
      10A     -1.358906    11A     -0.740336    12A     -0.733540
      13A     -0.731075    14A     -0.723120    15A     -0.709563
      16A     -0.612326    17A     -0.609450    18A     -0.599907
      19A     -0.593450    20A     -0.588899    21A     -0.535324
      22A     -0.531935    23A     -0.528412    24A     -0.524850
      25A     -0.508510

  @DF-RHF Final Energy:  -380.27134980952928

   => Energetics <=

    Nuclear Repulsion Energy =            171.2788082671585812
    One-Electron Energy =                -865.0360613309079554
    Two-Electron Energy =                 313.4859032542201476
    Total Energy =                       -380.2713498095292834
 Dipole X            :        -16.8518209           17.3618096            0.5099888
 Dipole Y            :         17.0988808          -17.5196547           -0.4207739
 Dipole Z            :       -147.1322514          146.6261688           -0.5060826
 Magnitude           :                                                    0.8326217

    SAPT Results
  --------------------------------------------------------------------------------------------------------
    Electrostatics               -100.24739006 [mEh]     -62.90618698 [kcal/mol]    -263.19948633 [kJ/mol]
      Elst10,r                   -100.53211242 [mEh]     -63.08485296 [kcal/mol]    -263.94702478 [kJ/mol]
      Elst12,r                      0.28472236 [mEh]       0.17866598 [kcal/mol]       0.74753845 [kJ/mol]

    Exchange                       65.88478214 [mEh]      41.34332497 [kcal/mol]     172.98047167 [kJ/mol]
      Exch10                       57.55707238 [mEh]      36.11760820 [kcal/mol]     151.11607271 [kJ/mol]
      Exch10(S^2)                  57.09946400 [mEh]      35.83045460 [kcal/mol]     149.91462207 [kJ/mol]
      Exch11(S^2)                   2.89219573 [mEh]       1.81488022 [kcal/mol]       7.59345884 [kJ/mol]
      Exch12(S^2)                   5.43551403 [mEh]       3.41083655 [kcal/mol]      14.27094011 [kJ/mol]

    Induction                     -36.15949788 [mEh]     -22.69042749 [kcal/mol]     -94.93674860 [kJ/mol]
      Ind20,r                     -49.50592654 [mEh]     -31.06543791 [kcal/mol]    -129.97779223 [kJ/mol]
      Ind22                        -6.29924793 [mEh]      -3.95283775 [kcal/mol]     -16.53867316 [kJ/mol]
      Exch-Ind20,r                 24.76106378 [mEh]      15.53780210 [kcal/mol]      65.01016399 [kJ/mol]
      Exch-Ind22                    3.15065469 [mEh]       1.97706567 [kcal/mol]       8.27204275 [kJ/mol]
      delta HF,r (2)               -8.26604188 [mEh]      -5.18701959 [kcal/mol]     -21.70248996 [kJ/mol]

    Dispersion                    -24.84033707 [mEh]     -15.58754685 [kcal/mol]     -65.21829600 [kJ/mol]
      Disp20                      -27.64926370 [mEh]     -17.35017491 [kcal/mol]     -72.59313184 [kJ/mol]
      Disp21                        1.87136841 [mEh]       1.17430141 [kcal/mol]       4.91327709 [kJ/mol]
      Disp22 (SDQ)                 -0.06200881 [mEh]      -0.03891112 [kcal/mol]      -0.16280412 [kJ/mol]
      Disp22 (T)                   -4.51386958 [mEh]      -2.83249592 [kcal/mol]     -11.85116294 [kJ/mol]
      Est. Disp22 (T)              -5.16442069 [mEh]      -3.24072291 [kcal/mol]     -13.55918466 [kJ/mol]
      Exch-Disp20                   6.16398772 [mEh]       3.86796069 [kcal/mol]      16.18354752 [kJ/mol]

  Total HF                        -75.98594468 [mEh]     -47.68190016 [kcal/mol]    -199.50107027 [kJ/mol]
  Total SAPT0                     -97.47122066 [mEh]     -61.16411439 [kcal/mol]    -255.91065459 [kJ/mol]
  Total SAPT2                     -92.00738178 [mEh]     -57.73550373 [kcal/mol]    -241.56534759 [kJ/mol]
  Total SAPT2+                    -95.36244287 [mEh]     -59.84083635 [kcal/mol]    -250.37405927 [kJ/mol]

  Special recipe for scaled SAPT0 (see Manual):
    Electrostatics sSAPT0        -100.53211242 [mEh]     -63.08485296 [kcal/mol]    -263.94702478 [kJ/mol]
    Exchange sSAPT0                57.55707238 [mEh]      36.11760820 [kcal/mol]     151.11607271 [kJ/mol]
    Induction sSAPT0              -32.41079807 [mEh]     -20.33808284 [kcal/mol]     -85.09453862 [kJ/mol]
    Dispersion sSAPT0             -21.33588622 [mEh]     -13.38847073 [kcal/mol]     -56.01736154 [kJ/mol]
  Total sSAPT0                    -96.72172432 [mEh]     -60.69379833 [kcal/mol]    -253.94285223 [kJ/mol]
  --------------------------------------------------------------------------------------------------------

*** Psi4 exiting successfully. Buy a developer a beer!
