                               Psi4 1.8.2 release

  ==> Input File <==

--------------------------------------------------------------------------
MEMORY 60 GB

molecule dimer {
-1 1
Cl     0.000000     0.000000     0.000000
--
0 1
O     -0.492503    -3.205237    -1.072721
H     -0.160426    -3.707051    -0.306645
H     -0.669682    -2.344857    -0.639707
O      1.175860     2.754777    -0.846269
H      0.509189     2.080200    -0.680117
H      0.850151     3.534482    -0.372311
O      1.094463     2.253006     1.985402
H      0.167817     2.461694     2.105720
H      1.107492     1.486664     1.400269
O     -2.181360    -0.134466     2.316522
H     -2.488476    -0.815776     1.739941
H     -1.316019     0.166729     1.976239
O      2.825452    -0.879212     0.944999
H      1.891967    -0.727444     0.892758
H      3.307089    -0.017689     1.010326

units ang
no_reorient
no_com
symmetry c1
}

set {
basis        aug-cc-pVTZ
scf_type     df
}

energy("sapt2+")
--------------------------------------------------------------------------

  //              Dimer HF             //
    Molecular point group: c1
  Charge       = -1
  Multiplicity = 1
  Basis Set: AUG-CC-PVTZ
    Blend: AUG-CC-PVTZ
  Basis Set: (AUG-CC-PVTZ AUX)
    Blend: AUG-CC-PVTZ-JKFIT
  @DF-RHF Final Energy:  -839.92494797834979
    Total Energy =                       -839.9249479783497918
 Dipole X            :        -43.8748388           42.6594297           -1.2154091
 Dipole Y            :        -15.7236623           15.9264153            0.2027530
 Dipole Z            :        -63.9798156           63.7781377           -0.2016779
 Magnitude           :                                                    1.2486000
  //            Monomer A HF           //
    Molecular point group: c1
  Multiplicity = 1
  Basis Set: AUG-CC-PVTZ
    Blend: AUG-CC-PVTZ
  Basis Set: (AUG-CC-PVTZ AUX)
    Blend: AUG-CC-PVTZ-JKFIT
  @DF-RHF Final Energy:  -459.57357641901029
    Total Energy =                       -459.5735764190102373
  //            Monomer B HF           //
    Molecular point group: c1

    Geometry (in Angstrom), charge = 0, multiplicity = 1:

       Center              X                  Y                   Z               Mass
    ------------   -----------------  -----------------  -----------------  -----------------
      Gh(CL)          0.000000000000     0.000000000000     0.000000000000    34.968852682000
         O           -0.492503000000    -3.205237000000    -1.072721000000    15.994914619570
         H           -0.160426000000    -3.707051000000    -0.306645000000     1.007825032230
         H           -0.669682000000    -2.344857000000    -0.639707000000     1.007825032230
         O            1.175860000000     2.754777000000    -0.846269000000    15.994914619570
         H            0.509189000000     2.080200000000    -0.680117000000     1.007825032230
         H            0.850151000000     3.534482000000    -0.372311000000     1.007825032230
         O            1.094463000000     2.253006000000     1.985402000000    15.994914619570
         H            0.167817000000     2.461694000000     2.105720000000     1.007825032230
         H            1.107492000000     1.486664000000     1.400269000000     1.007825032230
         O           -2.181360000000    -0.134466000000     2.316522000000    15.994914619570
         H           -2.488476000000    -0.815776000000     1.739941000000     1.007825032230
         H           -1.316019000000     0.166729000000     1.976239000000     1.007825032230
         O            2.825452000000    -0.879212000000     0.944999000000    15.994914619570
         H            1.891967000000    -0.727444000000     0.892758000000     1.007825032230
         H            3.307089000000    -0.017689000000     1.010326000000     1.007825032230

  Charge       = 0
  Multiplicity = 1
  Basis Set: AUG-CC-PVTZ
    Blend: AUG-CC-PVTZ
  Basis Set: (AUG-CC-PVTZ AUX)
    Blend: AUG-CC-PVTZ-JKFIT

    Orbital Energies [Eh]
    ---------------------

    Doubly Occupied:

       1A    -20.596274     2A    -20.594523     3A    -20.587575
       4A    -20.581919     5A    -20.581073     6A     -1.381516
       7A     -1.379561     8A     -1.362301     9A     -1.361809
      10A     -1.360267    11A     -0.751129    12A     -0.747249
      13A     -0.737725    14A     -0.726197    15A     -0.712340
      16A     -0.612889    17A     -0.607066    18A     -0.604476
      19A     -0.597136    20A     -0.586531    21A     -0.548779
      22A     -0.538261    23A     -0.524654    24A     -0.522488
      25A     -0.511359

  @DF-RHF Final Energy:  -380.28262492880538

   => Energetics <=

    Nuclear Repulsion Energy =            165.4815635701138206
    One-Electron Energy =                -853.2981748664786892
    Two-Electron Energy =                 307.5339863675594643
    Total Energy =                       -380.2826249288053759
 Dipole X            :        -43.6468183           42.6594297           -0.9873886
 Dipole Y            :        -15.5275927           15.9264153            0.3988225
 Dipole Z            :        -63.4509724           63.7781377            0.3271653
 Magnitude           :                                                    1.1140165

    SAPT Results
  --------------------------------------------------------------------------------------------------------
    Electrostatics               -111.45136870 [mEh]     -69.93678972 [kcal/mol]    -292.61552820 [kJ/mol]
      Elst10,r                   -111.11118948 [mEh]     -69.72332404 [kcal/mol]    -291.72238778 [kJ/mol]
      Elst12,r                     -0.34017922 [mEh]      -0.21346568 [kcal/mol]      -0.89314042 [kJ/mol]

    Exchange                       84.96900531 [mEh]      53.31885581 [kcal/mol]     223.08609270 [kJ/mol]
      Exch10                       74.49694906 [mEh]      46.74754130 [kcal/mol]     195.59171280 [kJ/mol]
      Exch10(S^2)                  73.90691744 [mEh]      46.37729087 [kcal/mol]     194.04258501 [kJ/mol]
      Exch11(S^2)                   3.37247031 [mEh]       2.11625707 [kcal/mol]       8.85441957 [kJ/mol]
      Exch12(S^2)                   7.09958595 [mEh]       4.45505744 [kcal/mol]      18.63996033 [kJ/mol]

    Induction                     -35.67972423 [mEh]     -22.38936497 [kcal/mol]     -93.67710305 [kJ/mol]
      Ind20,r                     -59.33628099 [mEh]     -37.23407846 [kcal/mol]    -155.78738428 [kJ/mol]
      Ind22                        -8.40452488 [mEh]      -5.27391898 [kcal/mol]     -22.06607703 [kJ/mol]
      Exch-Ind20,r                 34.29196061 [mEh]      21.51853016 [kcal/mol]      90.03353019 [kJ/mol]
      Exch-Ind22                    4.85719077 [mEh]       3.04793322 [kcal/mol]      12.75255260 [kJ/mol]
      delta HF,r (2)               -7.08806974 [mEh]      -4.44783091 [kcal/mol]     -18.60972453 [kJ/mol]

    Dispersion                    -29.14543731 [mEh]     -18.28903803 [kcal/mol]     -76.52133512 [kJ/mol]
      Disp20                      -33.07583358 [mEh]     -20.75539892 [kcal/mol]     -86.84058910 [kJ/mol]
      Disp21                        2.23893661 [mEh]       1.40495393 [kcal/mol]       5.87832726 [kJ/mol]
      Disp22 (SDQ)                 -0.14663368 [mEh]      -0.09201402 [kcal/mol]      -0.38498668 [kJ/mol]
      Disp22 (T)                   -5.31189133 [mEh]      -3.33326213 [kcal/mol]     -13.94636876 [kJ/mol]
      Est. Disp22 (T)              -6.10349290 [mEh]      -3.82999962 [kcal/mol]     -16.02471841 [kJ/mol]
      Exch-Disp20                   7.94158624 [mEh]       4.98342060 [kcal/mol]      20.85063180 [kJ/mol]

  Total HF                        -68.74663053 [mEh]     -43.13916195 [kcal/mol]    -180.49425360 [kJ/mol]
  Total SAPT0                     -93.88087787 [mEh]     -58.91114027 [kcal/mol]    -246.48421090 [kJ/mol]
  Total SAPT2                     -87.29633496 [mEh]     -54.77927721 [kcal/mol]    -229.19649585 [kJ/mol]
  Total SAPT2+                    -91.30752493 [mEh]     -57.29633692 [kcal/mol]    -239.72787367 [kJ/mol]

  Special recipe for scaled SAPT0 (see Manual):
    Electrostatics sSAPT0        -111.11118948 [mEh]     -69.72332404 [kcal/mol]    -291.72238778 [kJ/mol]
    Exchange sSAPT0                74.49694906 [mEh]      46.74754130 [kcal/mol]     195.59171280 [kJ/mol]
    Induction sSAPT0              -31.30451216 [mEh]     -19.64387795 [kcal/mol]     -82.18998536 [kJ/mol]
    Dispersion sSAPT0             -24.94252123 [mEh]     -15.65166837 [kcal/mol]     -65.48658047 [kJ/mol]
  Total sSAPT0                    -92.86127382 [mEh]     -58.27132907 [kcal/mol]    -243.80724082 [kJ/mol]
  --------------------------------------------------------------------------------------------------------

*** Psi4 exiting successfully. Buy a developer a beer!
