                               Psi4 1.8.2 release

  ==> Input File <==

--------------------------------------------------------------------------
MEMORY 60 GB

molecule dimer {
-1 1
Br     0.000000     0.000000     0.000000
--
0 1
O      2.964962     1.491294    -0.232552
H      3.167346     2.329112     0.134912
H      2.039397     1.199057     0.005168
O      2.467355    -1.133067     2.039740
H      1.833343    -1.067852     1.347526
H      2.278611    -1.962652     2.509428
O      1.685230    -2.489969    -1.505692
H      1.129809    -1.865417    -1.040823
H      2.217802    -1.919562    -2.100617
O     -1.693532    -0.769404     2.754182
H     -2.198821    -0.054616     3.172365
H     -1.091690    -0.339489     2.159721

units ang
no_reorient
no_com
symmetry c1
}

set {
basis        aug-cc-pVTZ
scf_type     df
}

energy("sapt2+")
--------------------------------------------------------------------------

  //              Dimer HF             //
    Molecular point group: c1
  Charge       = -1
  Multiplicity = 1
  Basis Set: AUG-CC-PVTZ
    Blend: AUG-CC-PVTZ
  Basis Set: (AUG-CC-PVTZ AUX)
    Blend: AUG-CC-PVTZ-JKFIT
  @DF-RHF Final Energy: -2876.81164172711715
    Total Energy =                      -2876.8116417271166938
 Dipole X            :       -101.2580571           99.7169113           -1.5411458
 Dipole Y            :         52.4054899          -50.8158448            1.5896451
 Dipole Z            :        -58.1333213           57.8881769           -0.2451444
 Magnitude           :                                                    2.2275991
  //            Monomer A HF           //
    Molecular point group: c1
  Multiplicity = 1
  Basis Set: AUG-CC-PVTZ
    Blend: AUG-CC-PVTZ
  Basis Set: (AUG-CC-PVTZ AUX)
    Blend: AUG-CC-PVTZ-JKFIT
  @DF-RHF Final Energy: -2572.53372298721297
    Total Energy =                      -2572.5337229872129683
  //            Monomer B HF           //
    Molecular point group: c1

    Geometry (in Angstrom), charge = 0, multiplicity = 1:

       Center              X                  Y                   Z               Mass
    ------------   -----------------  -----------------  -----------------  -----------------
      Gh(BR)          0.000000000000     0.000000000000     0.000000000000    78.918337600000
         O            2.964962000000     1.491294000000    -0.232552000000    15.994914619570
         H            3.167346000000     2.329112000000     0.134912000000     1.007825032230
         H            2.039397000000     1.199057000000     0.005168000000     1.007825032230
         O            2.467355000000    -1.133067000000     2.039740000000    15.994914619570
         H            1.833343000000    -1.067852000000     1.347526000000     1.007825032230
         H            2.278611000000    -1.962652000000     2.509428000000     1.007825032230
         O            1.685230000000    -2.489969000000    -1.505692000000    15.994914619570
         H            1.129809000000    -1.865417000000    -1.040823000000     1.007825032230
         H            2.217802000000    -1.919562000000    -2.100617000000     1.007825032230
         O           -1.693532000000    -0.769404000000     2.754182000000    15.994914619570
         H           -2.198821000000    -0.054616000000     3.172365000000     1.007825032230
         H           -1.091690000000    -0.339489000000     2.159721000000     1.007825032230

  Charge       = 0
  Multiplicity = 1
  Basis Set: AUG-CC-PVTZ
    Blend: AUG-CC-PVTZ
  Basis Set: (AUG-CC-PVTZ AUX)
    Blend: AUG-CC-PVTZ-JKFIT

    Orbital Energies [Eh]
    ---------------------

    Doubly Occupied:

       1A    -20.578402     2A    -20.574841     3A    -20.573390
       4A    -20.568004     5A     -1.363148     6A     -1.355166
       7A     -1.353677     8A     -1.351732     9A     -0.734922
      10A     -0.730046    11A     -0.723906    12A     -0.714282
      13A     -0.593745    14A     -0.589847    15A     -0.582671
      16A     -0.576638    17A     -0.521218    18A     -0.516269
      19A     -0.514494    20A     -0.509868

  @DF-RHF Final Energy:  -304.23170499689684

   => Energetics <=

    Nuclear Repulsion Energy =            108.7713135985855786
    One-Electron Energy =                -635.9535013086701838
    Two-Electron Energy =                 222.9504827131877391
    Total Energy =                       -304.2317049968968377
 Dipole X            :       -100.6023227           99.7169113           -0.8854114
 Dipole Y            :         52.1977234          -50.8158448            1.3818786
 Dipole Z            :        -57.8053559           57.8881769            0.0828210
 Magnitude           :                                                    1.6432897

    SAPT Results
  --------------------------------------------------------------------------------------------------------
    Electrostatics                -77.64735862 [mEh]     -48.72445315 [kcal/mol]    -203.86311198 [kJ/mol]
      Elst10,r                    -77.08879149 [mEh]     -48.37394698 [kcal/mol]    -202.39659418 [kJ/mol]
      Elst12,r                     -0.55856713 [mEh]      -0.35050617 [kcal/mol]      -1.46651781 [kJ/mol]

    Exchange                       64.11267515 [mEh]      40.23131104 [kcal/mol]     168.32780540 [kJ/mol]
      Exch10                       57.27574821 [mEh]      35.94107462 [kcal/mol]     150.37745622 [kJ/mol]
      Exch10(S^2)                  56.73314035 [mEh]      35.60058305 [kcal/mol]     148.95283946 [kJ/mol]
      Exch11(S^2)                   2.45984209 [mEh]       1.54357422 [kcal/mol]       6.45831452 [kJ/mol]
      Exch12(S^2)                   4.37708484 [mEh]       2.74666221 [kcal/mol]      11.49203467 [kJ/mol]

    Induction                     -28.74763359 [mEh]     -18.03941243 [kcal/mol]     -75.47690159 [kJ/mol]
      Ind20,r                     -49.17860102 [mEh]     -30.86003804 [kcal/mol]    -129.11839918 [kJ/mol]
      Ind22                        -6.29200713 [mEh]      -3.94829408 [kcal/mol]     -16.51966244 [kJ/mol]
      Exch-Ind20,r                 30.83486402 [mEh]      19.34916930 [kcal/mol]      80.95692434 [kJ/mol]
      Exch-Ind22                    3.94507327 [mEh]       2.47557085 [kcal/mol]      10.35778844 [kJ/mol]
      delta HF,r (2)               -8.05696274 [mEh]      -5.05582045 [kcal/mol]     -21.15355275 [kJ/mol]

    Dispersion                    -22.67467187 [mEh]     -14.22857141 [kcal/mol]     -59.53234279 [kJ/mol]
      Disp20                      -25.94599374 [mEh]     -16.28135688 [kcal/mol]     -68.12119718 [kJ/mol]
      Disp21                        1.77714765 [mEh]       1.11517699 [kcal/mol]       4.66590052 [kJ/mol]
      Disp22 (SDQ)                  0.03355781 [mEh]       0.02105784 [kcal/mol]       0.08810602 [kJ/mol]
      Disp22 (T)                   -4.02953079 [mEh]      -2.52856875 [kcal/mol]     -10.57953164 [kJ/mol]
      Est. Disp22 (T)              -4.63391370 [mEh]      -2.90782475 [kcal/mol]     -12.16633874 [kJ/mol]
      Exch-Disp20                   6.09453011 [mEh]       3.82437538 [kcal/mol]      16.00118659 [kJ/mol]

  Total HF                        -46.21374301 [mEh]     -28.99956156 [kcal/mol]    -121.33416555 [kJ/mol]
  Total SAPT0                     -66.06520664 [mEh]     -41.45654305 [kcal/mol]    -173.45417614 [kJ/mol]
  Total SAPT2                     -62.13378070 [mEh]     -38.98953603 [kcal/mol]    -163.13221876 [kJ/mol]
  Total SAPT2+                    -64.95698894 [mEh]     -40.76112595 [kcal/mol]    -170.54455096 [kJ/mol]

  Special recipe for scaled SAPT0 (see Manual):
    Electrostatics sSAPT0         -77.08879149 [mEh]     -48.37394698 [kcal/mol]    -202.39659418 [kJ/mol]
    Exchange sSAPT0                57.27574821 [mEh]      35.94107462 [kcal/mol]     150.37745622 [kJ/mol]
    Induction sSAPT0              -25.50747731 [mEh]     -16.00618366 [kcal/mol]     -66.96987244 [kJ/mol]
    Dispersion sSAPT0             -19.67491766 [mEh]     -12.34619723 [kcal/mol]     -51.65648921 [kJ/mol]
  Total sSAPT0                    -64.99543825 [mEh]     -40.78525325 [kcal/mol]    -170.64549961 [kJ/mol]
  --------------------------------------------------------------------------------------------------------

*** Psi4 exiting successfully. Buy a developer a beer!
