                               Psi4 1.8.2 release

  ==> Input File <==

--------------------------------------------------------------------------
MEMORY 60 GB

molecule dimer {
-1 1
Br     0.000000     0.000000     0.000000
--
0 1
O      1.521234     1.209788    -2.685367
H      2.096141     0.409973    -2.642532
H      1.413599     1.432485    -3.599181
O      2.137029    -0.858665     2.437340
H      1.531524    -0.762129     1.688950
H      1.596637    -0.978037     3.206662
O      1.238938     1.972390     2.398987
H      0.860966     1.485662     1.615154
H      1.150578     1.320561     3.162309
O      0.117012    -3.331974     0.636691
H      0.665240    -3.509200     1.434153
H      0.025395    -2.338891     0.576819
O     -1.361959    -0.368772     3.303538
H     -0.708171    -0.442974     3.989043
H     -0.893664    -0.189371     2.459854
O     -1.248477     2.143362    -2.447598
H     -0.346353     1.847909    -2.331410
H     -1.185038     2.892626    -1.867573

units ang
no_reorient
no_com
symmetry c1
}

set {
basis        aug-cc-pVTZ
scf_type     df
}

energy("sapt2+")
--------------------------------------------------------------------------

  //              Dimer HF             //
    Molecular point group: c1
  Charge       = -1
  Multiplicity = 1
  Basis Set: AUG-CC-PVTZ
    Blend: AUG-CC-PVTZ
  Basis Set: (AUG-CC-PVTZ AUX)
    Blend: AUG-CC-PVTZ-JKFIT
  @DF-RHF Final Energy: -3028.91699998100330
    Total Energy =                      -3028.9169999810033005
 Dipole X            :        -47.3481462           48.0690957            0.7209495
 Dipole Y            :        -13.8305171           13.7905523           -0.0399648
 Dipole Z            :        -70.4525904           69.6193548           -0.8332356
 Magnitude           :                                                    1.1025638
  //            Monomer A HF           //
    Molecular point group: c1
  Multiplicity = 1
  Basis Set: AUG-CC-PVTZ
    Blend: AUG-CC-PVTZ
  Basis Set: (AUG-CC-PVTZ AUX)
    Blend: AUG-CC-PVTZ-JKFIT
  @DF-RHF Final Energy: -2572.53373141257998
    Total Energy =                      -2572.5337314125799821
  //            Monomer B HF           //
    Molecular point group: c1

    Geometry (in Angstrom), charge = 0, multiplicity = 1:

       Center              X                  Y                   Z               Mass
    ------------   -----------------  -----------------  -----------------  -----------------
      Gh(BR)          0.000000000000     0.000000000000     0.000000000000    78.918337600000
         O            1.521234000000     1.209788000000    -2.685367000000    15.994914619570
         H            2.096141000000     0.409973000000    -2.642532000000     1.007825032230
         H            1.413599000000     1.432485000000    -3.599181000000     1.007825032230
         O            2.137029000000    -0.858665000000     2.437340000000    15.994914619570
         H            1.531524000000    -0.762129000000     1.688950000000     1.007825032230
         H            1.596637000000    -0.978037000000     3.206662000000     1.007825032230
         O            1.238938000000     1.972390000000     2.398987000000    15.994914619570
         H            0.860966000000     1.485662000000     1.615154000000     1.007825032230
         H            1.150578000000     1.320561000000     3.162309000000     1.007825032230
         O            0.117012000000    -3.331974000000     0.636691000000    15.994914619570
         H            0.665240000000    -3.509200000000     1.434153000000     1.007825032230
         H            0.025395000000    -2.338891000000     0.576819000000     1.007825032230
         O           -1.361959000000    -0.368772000000     3.303538000000    15.994914619570
         H           -0.708171000000    -0.442974000000     3.989043000000     1.007825032230
         H           -0.893664000000    -0.189371000000     2.459854000000     1.007825032230
         O           -1.248477000000     2.143362000000    -2.447598000000    15.994914619570
         H           -0.346353000000     1.847909000000    -2.331410000000     1.007825032230
         H           -1.185038000000     2.892626000000    -1.867573000000     1.007825032230

  Charge       = 0
  Multiplicity = 1
  Basis Set: AUG-CC-PVTZ
    Blend: AUG-CC-PVTZ
  Basis Set: (AUG-CC-PVTZ AUX)
    Blend: AUG-CC-PVTZ-JKFIT

    Orbital Energies [Eh]
    ---------------------

    Doubly Occupied:

       1A    -20.606346     2A    -20.599363     3A    -20.597542
       4A    -20.587312     5A    -20.586989     6A    -20.552720
       7A     -1.394680     8A     -1.380730     9A     -1.379370
      10A     -1.350357    11A     -1.347265    12A     -1.344541
      13A     -0.764179    14A     -0.752000    15A     -0.750968
      16A     -0.717198    17A     -0.706329    18A     -0.692515
      19A     -0.627861    20A     -0.617414    21A     -0.604867
      22A     -0.593741    23A     -0.587793    24A     -0.583417
      25A     -0.550041    26A     -0.540145    27A     -0.539448
      28A     -0.521391    29A     -0.513740    30A     -0.498874

  @DF-RHF Final Energy:  -456.33456164029070

   => Energetics <=

    Nuclear Repulsion Energy =            230.5585448344176314
    One-Electron Energy =               -1088.0079374041579285
    Two-Electron Energy =                 401.1148309294496244
    Total Energy =                       -456.3345616402907012
 Dipole X            :        -46.9366472           48.0690957            1.1324485
 Dipole Y            :        -14.1057038           13.7905523           -0.3151515
 Dipole Z            :        -69.3774735           69.6193548            0.2418813
 Magnitude           :                                                    1.2001111

    SAPT Results
  --------------------------------------------------------------------------------------------------------
    Electrostatics                -82.57794800 [mEh]     -51.81844469 [kcal/mol]    -216.80837260 [kJ/mol]
      Elst10,r                    -81.07862751 [mEh]     -50.87760688 [kcal/mol]    -212.87190720 [kJ/mol]
      Elst12,r                     -1.49932049 [mEh]      -0.94083781 [kcal/mol]      -3.93646541 [kJ/mol]

    Exchange                       78.22211447 [mEh]      49.08511789 [kcal/mol]     205.37213324 [kJ/mol]
      Exch10                       69.45578119 [mEh]      43.58416070 [kcal/mol]     182.35612838 [kJ/mol]
      Exch10(S^2)                  68.39967814 [mEh]      42.92144604 [kcal/mol]     179.58333021 [kJ/mol]
      Exch11(S^2)                   2.84709800 [mEh]       1.78658097 [kcal/mol]       7.47505476 [kJ/mol]
      Exch12(S^2)                   5.91923528 [mEh]       3.71437622 [kcal/mol]      15.54095010 [kJ/mol]

    Induction                     -40.40477250 [mEh]     -25.35437753 [kcal/mol]    -106.08271559 [kJ/mol]
      Ind20,r                     -65.84039657 [mEh]     -41.31547261 [kcal/mol]    -172.86393739 [kJ/mol]
      Ind22                        -8.07799564 [mEh]      -5.06901879 [kcal/mol]     -21.20877464 [kJ/mol]
      Exch-Ind20,r                 38.77482216 [mEh]      24.33156825 [kcal/mol]     101.80328155 [kJ/mol]
      Exch-Ind22                    4.75730495 [mEh]       2.98525392 [kcal/mol]      12.49030242 [kJ/mol]
      delta HF,r (2)              -10.01850739 [mEh]      -6.28670830 [kcal/mol]     -26.30358754 [kJ/mol]

    Dispersion                    -29.57738171 [mEh]     -18.56008723 [kcal/mol]     -77.65540499 [kJ/mol]
      Disp20                      -33.57191214 [mEh]     -21.06669292 [kcal/mol]     -88.14304319 [kJ/mol]
      Disp21                        2.72596476 [mEh]       1.71056871 [kcal/mol]       7.15701950 [kJ/mol]
      Disp22 (SDQ)                 -0.15707109 [mEh]      -0.09856360 [kcal/mol]      -0.41239009 [kJ/mol]
      Disp22 (T)                   -5.37597050 [mEh]      -3.37347242 [kcal/mol]     -14.11460860 [kJ/mol]
      Est. Disp22 (T)              -6.18128605 [mEh]      -3.87881555 [kcal/mol]     -16.22896428 [kJ/mol]
      Exch-Disp20                   7.60692281 [mEh]       4.77341613 [kcal/mol]      19.97197308 [kJ/mol]

  Total HF                        -48.70692813 [mEh]     -30.56405884 [kcal/mol]    -127.88002219 [kJ/mol]
  Total SAPT0                     -74.67191747 [mEh]     -46.85733564 [kcal/mol]    -196.05109231 [kJ/mol]
  Total SAPT2                     -70.72559538 [mEh]     -44.38098114 [kcal/mol]    -185.69002507 [kJ/mol]
  Total SAPT2+                    -74.33798775 [mEh]     -46.64779157 [kcal/mol]    -195.17435995 [kJ/mol]

  Special recipe for scaled SAPT0 (see Manual):
    Electrostatics sSAPT0         -81.07862751 [mEh]     -50.87760688 [kcal/mol]    -212.87190720 [kJ/mol]
    Exchange sSAPT0                69.45578119 [mEh]      43.58416070 [kcal/mol]     182.35612838 [kJ/mol]
    Induction sSAPT0              -35.26013725 [mEh]     -22.12607017 [kcal/mol]     -92.57547758 [kJ/mol]
    Dispersion sSAPT0             -25.60716422 [mEh]     -16.06873814 [kcal/mol]     -67.23160038 [kJ/mol]
  Total sSAPT0                    -72.49014778 [mEh]     -45.48825449 [kcal/mol]    -190.32285678 [kJ/mol]
  --------------------------------------------------------------------------------------------------------

*** Psi4 exiting successfully. Buy a developer a beer!
