                               Psi4 1.8.2 release

  ==> Input File <==

--------------------------------------------------------------------------
MEMORY 60 GB

molecule dimer {
-1 1
Br     0.000000     0.000000     0.000000
--
0 1
O      1.548803    -0.710591     3.040000
H      0.898652    -0.539982     2.353961
H      1.060812    -1.118901     3.781649
O      0.137519    -0.423573    -3.463886
H     -0.133520    -0.725311    -2.600673
H     -0.032708    -1.196669    -3.995500
O     -2.010270    -2.265977     1.576016
H     -1.353894    -1.831518     1.044048
H     -2.834302    -1.936376     1.192922
O     -0.016933    -2.910328    -1.674653
H     -0.135970    -2.167692    -1.070498
H      0.453271    -3.621303    -1.199784
O      3.384032    -0.837063    -0.115591
H      3.644167    -1.658433    -0.579572
H      2.425456    -0.765354    -0.030565

units ang
no_reorient
no_com
symmetry c1
}

set {
basis        aug-cc-pVTZ
scf_type     df
}

energy("sapt2+")
--------------------------------------------------------------------------

  //              Dimer HF             //
    Molecular point group: c1
  Charge       = -1
  Multiplicity = 1
  Basis Set: AUG-CC-PVTZ
    Blend: AUG-CC-PVTZ
  Basis Set: (AUG-CC-PVTZ AUX)
    Blend: AUG-CC-PVTZ-JKFIT
  @DF-RHF Final Energy: -2952.87833936770176
    Total Energy =                      -2952.8783393677022104
 Dipole X            :        -55.0426794           53.5494942           -1.4931852
 Dipole Y            :        137.4679819         -137.4620704            0.0059115
 Dipole Z            :         11.8431599          -11.7331659            0.1099940
 Magnitude           :                                                    1.4972427
  //            Monomer A HF           //
    Molecular point group: c1
  Multiplicity = 1
  Basis Set: AUG-CC-PVTZ
    Blend: AUG-CC-PVTZ
  Basis Set: (AUG-CC-PVTZ AUX)
    Blend: AUG-CC-PVTZ-JKFIT
  @DF-RHF Final Energy: -2572.53372719351910
    Total Energy =                      -2572.5337271935190984
  //            Monomer B HF           //
    Molecular point group: c1

    Geometry (in Angstrom), charge = 0, multiplicity = 1:

       Center              X                  Y                   Z               Mass
    ------------   -----------------  -----------------  -----------------  -----------------
      Gh(BR)          0.000000000000     0.000000000000     0.000000000000    78.918337600000
         O            1.548803000000    -0.710591000000     3.040000000000    15.994914619570
         H            0.898652000000    -0.539982000000     2.353961000000     1.007825032230
         H            1.060812000000    -1.118901000000     3.781649000000     1.007825032230
         O            0.137519000000    -0.423573000000    -3.463886000000    15.994914619570
         H           -0.133520000000    -0.725311000000    -2.600673000000     1.007825032230
         H           -0.032708000000    -1.196669000000    -3.995500000000     1.007825032230
         O           -2.010270000000    -2.265977000000     1.576016000000    15.994914619570
         H           -1.353894000000    -1.831518000000     1.044048000000     1.007825032230
         H           -2.834302000000    -1.936376000000     1.192922000000     1.007825032230
         O           -0.016933000000    -2.910328000000    -1.674653000000    15.994914619570
         H           -0.135970000000    -2.167692000000    -1.070498000000     1.007825032230
         H            0.453271000000    -3.621303000000    -1.199784000000     1.007825032230
         O            3.384032000000    -0.837063000000    -0.115591000000    15.994914619570
         H            3.644167000000    -1.658433000000    -0.579572000000     1.007825032230
         H            2.425456000000    -0.765354000000    -0.030565000000     1.007825032230

  Charge       = 0
  Multiplicity = 1
  Basis Set: AUG-CC-PVTZ
    Blend: AUG-CC-PVTZ
  Basis Set: (AUG-CC-PVTZ AUX)
    Blend: AUG-CC-PVTZ-JKFIT

    Orbital Energies [Eh]
    ---------------------

    Doubly Occupied:

       1A    -20.604353     2A    -20.596412     3A    -20.575860
       4A    -20.566222     5A    -20.563703     6A     -1.383375
       7A     -1.382281     8A     -1.354047     9A     -1.353987
      10A     -1.341063    11A     -0.759301    12A     -0.740900
      13A     -0.724942    14A     -0.720135    15A     -0.709835
      16A     -0.618210    17A     -0.614960    18A     -0.586372
      19A     -0.585838    20A     -0.567571    21A     -0.546038
      22A     -0.537737    23A     -0.516509    24A     -0.507462
      25A     -0.505253

  @DF-RHF Final Energy:  -380.28781904232119

   => Energetics <=

    Nuclear Repulsion Energy =            165.5627393821290241
    One-Electron Energy =                -853.7763839236623653
    Two-Electron Energy =                 307.9258254992121238
    Total Energy =                       -380.2878190423211890
 Dipole X            :        -54.9087777           53.5494942           -1.3592834
 Dipole Y            :        136.4705257         -137.4620704           -0.9915447
 Dipole Z            :         11.8889997          -11.7331659            0.1558339
 Magnitude           :                                                    1.6897031

    SAPT Results
  --------------------------------------------------------------------------------------------------------
    Electrostatics                -81.77914820 [mEh]     -51.31719026 [kcal/mol]    -214.71112403 [kJ/mol]
      Elst10,r                    -81.37952014 [mEh]     -51.06641986 [kcal/mol]    -213.66190070 [kJ/mol]
      Elst12,r                     -0.39962806 [mEh]      -0.25077039 [kcal/mol]      -1.04922332 [kJ/mol]

    Exchange                       61.16625550 [mEh]      38.38240480 [kcal/mol]     160.59198168 [kJ/mol]
      Exch10                       54.48148642 [mEh]      34.18764887 [kcal/mol]     143.04112289 [kJ/mol]
      Exch10(S^2)                  53.94196095 [mEh]      33.84909153 [kcal/mol]     141.62459896 [kJ/mol]
      Exch11(S^2)                   2.26834910 [mEh]       1.42341055 [kcal/mol]       5.95554975 [kJ/mol]
      Exch12(S^2)                   4.41641997 [mEh]       2.77134537 [kcal/mol]      11.59530904 [kJ/mol]

    Induction                     -32.46294412 [mEh]     -20.37080498 [kcal/mol]     -85.23144805 [kJ/mol]
      Ind20,r                     -51.33951970 [mEh]     -32.21603499 [kcal/mol]    -134.79189039 [kJ/mol]
      Ind22                        -6.05481562 [mEh]      -3.79945416 [kcal/mol]     -15.89691621 [kJ/mol]
      Exch-Ind20,r                 29.56644057 [mEh]      18.55322156 [kcal/mol]      77.62667901 [kJ/mol]
      Exch-Ind22                    3.48696963 [mEh]       2.18810648 [kcal/mol]       9.15503750 [kJ/mol]
      delta HF,r (2)               -8.12201901 [mEh]      -5.09664387 [kcal/mol]     -21.32435797 [kJ/mol]

    Dispersion                    -23.91976061 [mEh]     -15.00987639 [kcal/mol]     -62.80132283 [kJ/mol]
      Disp20                      -26.95152380 [mEh]     -16.91233652 [kcal/mol]     -70.76121599 [kJ/mol]
      Disp21                        1.96838953 [mEh]       1.23518308 [kcal/mol]       5.16800600 [kJ/mol]
      Disp22 (SDQ)                 -0.03307668 [mEh]      -0.02075593 [kcal/mol]      -0.08684281 [kJ/mol]
      Disp22 (T)                   -4.26745043 [mEh]      -2.67786557 [kcal/mol]     -11.20418956 [kJ/mol]
      Est. Disp22 (T)              -4.91698742 [mEh]      -3.08545619 [kcal/mol]     -12.90954869 [kJ/mol]
      Exch-Disp20                   6.01343776 [mEh]       3.77348916 [kcal/mol]      15.78827867 [kJ/mol]

  Total HF                        -56.79313186 [mEh]     -35.63822829 [kcal/mol]    -149.11034716 [kJ/mol]
  Total SAPT0                     -77.73121790 [mEh]     -48.77707564 [kcal/mol]    -204.08328449 [kJ/mol]
  Total SAPT2                     -74.01392287 [mEh]     -46.44443779 [kcal/mol]    -194.32352772 [kJ/mol]
  Total SAPT2+                    -76.99559744 [mEh]     -48.31546683 [kcal/mol]    -202.15191322 [kJ/mol]

  Special recipe for scaled SAPT0 (see Manual):
    Electrostatics sSAPT0         -81.37952014 [mEh]     -51.06641986 [kcal/mol]    -213.66190070 [kJ/mol]
    Exchange sSAPT0                54.48148642 [mEh]      34.18764887 [kcal/mol]     143.04112289 [kJ/mol]
    Induction sSAPT0              -28.99902785 [mEh]     -18.19716470 [kcal/mol]     -76.13693712 [kJ/mol]
    Dispersion sSAPT0             -20.75583675 [mEh]     -13.02448420 [kcal/mol]     -54.49444187 [kJ/mol]
  Total sSAPT0                    -76.65289832 [mEh]     -48.10041989 [kcal/mol]    -201.25215681 [kJ/mol]
  --------------------------------------------------------------------------------------------------------

*** Psi4 exiting successfully. Buy a developer a beer!
