                               Psi4 1.8.2 release

  ==> Input File <==

--------------------------------------------------------------------------
MEMORY 60 GB

molecule dimer {
-1 1
Br     0.000000     0.000000     0.000000
--
0 1
O     -0.134210     2.411128    -2.072805
H      0.609473     1.830673    -2.287997
H     -0.403434     2.300933    -1.141755
O     -1.310303    -2.052809     2.019950
H     -0.550126    -2.646822     1.949115
H     -1.196439    -1.381497     1.375027
O     -3.132579     0.001629    -1.095278
H     -2.256450    -0.233826    -0.636847
H     -2.985203    -0.177030    -2.038425

units ang
no_reorient
no_com
symmetry c1
}

set {
basis        aug-cc-pVTZ
scf_type     df
}

energy("sapt2+")
--------------------------------------------------------------------------

  //              Dimer HF             //
    Molecular point group: c1
  Charge       = -1
  Multiplicity = 1
  Basis Set: AUG-CC-PVTZ
    Blend: AUG-CC-PVTZ
  Basis Set: (AUG-CC-PVTZ AUX)
    Blend: AUG-CC-PVTZ-JKFIT
  @DF-RHF Final Energy: -2800.73718493175966
    Total Energy =                      -2800.7371849317596570
 Dipole X            :         84.1019882          -82.0120635            2.0899247
 Dipole Y            :         -5.4211228            4.8604039           -0.5607188
 Dipole Z            :         22.3888487          -22.6123608           -0.2235121
 Magnitude           :                                                    2.1753502
  //            Monomer A HF           //
    Molecular point group: c1
  Multiplicity = 1
  Basis Set: AUG-CC-PVTZ
    Blend: AUG-CC-PVTZ
  Basis Set: (AUG-CC-PVTZ AUX)
    Blend: AUG-CC-PVTZ-JKFIT
  @DF-RHF Final Energy: -2572.53370830551285
    Total Energy =                      -2572.5337083055128460
  //            Monomer B HF           //
    Molecular point group: c1

    Geometry (in Angstrom), charge = 0, multiplicity = 1:

       Center              X                  Y                   Z               Mass
    ------------   -----------------  -----------------  -----------------  -----------------
      Gh(BR)          0.000000000000     0.000000000000     0.000000000000    78.918337600000
         O           -0.134210000000     2.411128000000    -2.072805000000    15.994914619570
         H            0.609473000000     1.830673000000    -2.287997000000     1.007825032230
         H           -0.403434000000     2.300933000000    -1.141755000000     1.007825032230
         O           -1.310303000000    -2.052809000000     2.019950000000    15.994914619570
         H           -0.550126000000    -2.646822000000     1.949115000000     1.007825032230
         H           -1.196439000000    -1.381497000000     1.375027000000     1.007825032230
         O           -3.132579000000     0.001629000000    -1.095278000000    15.994914619570
         H           -2.256450000000    -0.233826000000    -0.636847000000     1.007825032230
         H           -2.985203000000    -0.177030000000    -2.038425000000     1.007825032230

  Charge       = 0
  Multiplicity = 1
  Basis Set: AUG-CC-PVTZ
    Blend: AUG-CC-PVTZ
  Basis Set: (AUG-CC-PVTZ AUX)
    Blend: AUG-CC-PVTZ-JKFIT

    Orbital Energies [Eh]
    ---------------------

    Doubly Occupied:

       1A    -20.578948     2A    -20.575797     3A    -20.574820
       4A     -1.364867     5A     -1.350115     6A     -1.341039
       7A     -0.736302     8A     -0.729430     9A     -0.705786
      10A     -0.590506    11A     -0.581453    12A     -0.577532
      13A     -0.520248    14A     -0.517046    15A     -0.510816

  @DF-RHF Final Energy:  -228.17031879727193

   => Energetics <=

    Nuclear Repulsion Energy =             62.4692756657893042
    One-Electron Energy =                -438.7697724760674305
    Two-Electron Energy =                 148.1301780130061729
    Total Energy =                       -228.1703187972719320
 Dipole X            :         83.5319553          -82.0120635            1.5198918
 Dipole Y            :         -5.5320563            4.8604039           -0.6716524
 Dipole Z            :         22.2781552          -22.6123608           -0.3342056
 Magnitude           :                                                    1.6949577

    SAPT Results
  --------------------------------------------------------------------------------------------------------
    Electrostatics                -73.77796966 [mEh]     -46.29637492 [kcal/mol]    -193.70403265 [kJ/mol]
      Elst10,r                    -72.96105165 [mEh]     -45.78375113 [kcal/mol]    -191.55921471 [kJ/mol]
      Elst12,r                     -0.81691801 [mEh]      -0.51262379 [kcal/mol]      -2.14481793 [kJ/mol]

    Exchange                       68.31061626 [mEh]      42.86555886 [kcal/mol]     179.34949828 [kJ/mol]
      Exch10                       61.01640985 [mEh]      38.28837524 [kcal/mol]     160.19856199 [kJ/mol]
      Exch10(S^2)                  59.99090820 [mEh]      37.64486324 [kcal/mol]     157.50610778 [kJ/mol]
      Exch11(S^2)                   2.56586678 [mEh]       1.61010572 [kcal/mol]       6.73668231 [kJ/mol]
      Exch12(S^2)                   4.72833962 [mEh]       2.96707791 [kcal/mol]      12.41425397 [kJ/mol]

    Induction                     -23.46286113 [mEh]     -14.72316764 [kcal/mol]     -61.60173342 [kJ/mol]
      Ind20,r                     -50.46326197 [mEh]     -31.66617496 [kcal/mol]    -132.49127605 [kJ/mol]
      Ind22                        -7.70452828 [mEh]      -4.83466448 [kcal/mol]     -20.22823620 [kJ/mol]
      Exch-Ind20,r                 35.72830583 [mEh]      22.41985039 [kcal/mol]      93.80465403 [kJ/mol]
      Exch-Ind22                    5.45485432 [mEh]       3.42297276 [kcal/mol]      14.32171804 [kJ/mol]
      delta HF,r (2)               -6.47823104 [mEh]      -4.06515135 [kcal/mol]     -17.00859324 [kJ/mol]

    Dispersion                    -21.19366604 [mEh]     -13.29922623 [kcal/mol]     -55.64396253 [kJ/mol]
      Disp20                      -24.75134426 [mEh]     -15.53170301 [kcal/mol]     -64.98464540 [kJ/mol]
      Disp21                        1.68259607 [mEh]       1.05584497 [kcal/mol]       4.41765537 [kJ/mol]
      Disp22 (SDQ)                 -0.04580240 [mEh]      -0.02874144 [kcal/mol]      -0.12025419 [kJ/mol]
      Disp22 (T)                   -3.84347336 [mEh]      -2.41181595 [kcal/mol]     -10.09103793 [kJ/mol]
      Est. Disp22 (T)              -4.40341749 [mEh]      -2.76318619 [kcal/mol]     -11.56117103 [kJ/mol]
      Exch-Disp20                   6.32430204 [mEh]       3.96855945 [kcal/mol]      16.60445272 [kJ/mol]

  Total HF                        -33.15782897 [mEh]     -20.80685181 [kcal/mol]     -87.05586798 [kJ/mol]
  Total SAPT0                     -51.58487119 [mEh]     -32.36999538 [kcal/mol]    -135.43606065 [kJ/mol]
  Total SAPT2                     -47.35725675 [mEh]     -29.71712726 [kcal/mol]    -124.33646046 [kJ/mol]
  Total SAPT2+                    -50.12388057 [mEh]     -31.45320992 [kcal/mol]    -131.60023031 [kJ/mol]

  Special recipe for scaled SAPT0 (see Manual):
    Electrostatics sSAPT0         -72.96105165 [mEh]     -45.78375113 [kcal/mol]    -191.55921471 [kJ/mol]
    Exchange sSAPT0                61.01640985 [mEh]      38.28837524 [kcal/mol]     160.19856199 [kJ/mol]
    Induction sSAPT0              -19.34943824 [mEh]     -12.14195581 [kcal/mol]     -50.80194310 [kJ/mol]
    Dispersion sSAPT0             -18.09713821 [mEh]     -11.35612568 [kcal/mol]     -47.51402983 [kJ/mol]
  Total sSAPT0                    -49.39121825 [mEh]     -30.99345737 [kcal/mol]    -129.67662565 [kJ/mol]
  --------------------------------------------------------------------------------------------------------

*** Psi4 exiting successfully. Buy a developer a beer!
