                               Psi4 1.8.2 release

  ==> Input File <==

--------------------------------------------------------------------------
MEMORY 60 GB

molecule dimer {
-1 1
Br     0.000000     0.000000     0.000000
--
0 1
O     -2.114396    -0.823968    -2.451740
H     -1.344934    -0.815549    -1.892709
H     -2.578301    -1.686826    -2.349784
O     -2.840106    -0.818403     1.694288
H     -2.923211    -1.709126     1.352216
H     -1.976154    -0.530056     1.405183
O      0.359761    -1.678973     2.757291
H      0.155656    -1.071042     3.436648
H      0.309349    -1.206416     1.893897
O     -0.002582    -3.436636     0.122679
H     -0.128662    -2.474547     0.122748
H      0.840782    -3.640659    -0.311875
O      3.119434    -1.374833    -0.676470
H      2.298457    -1.110581    -0.190519
H      3.320939    -2.236567    -0.244513

units ang
no_reorient
no_com
symmetry c1
}

set {
basis        aug-cc-pVTZ
scf_type     df
}

energy("sapt2+")
--------------------------------------------------------------------------

  //              Dimer HF             //
    Molecular point group: c1
  Charge       = -1
  Multiplicity = 1
  Basis Set: AUG-CC-PVTZ
    Blend: AUG-CC-PVTZ
  Basis Set: (AUG-CC-PVTZ AUX)
    Blend: AUG-CC-PVTZ-JKFIT
  @DF-RHF Final Energy: -2952.87622980719470
    Total Energy =                      -2952.8762298071951591
 Dipole X            :         26.8828781          -26.1711780            0.7117001
 Dipole Y            :        154.9195490         -154.0955872            0.8239618
 Dipole Z            :        -28.0043573           27.9484371           -0.0559202
 Magnitude           :                                                    1.0902096
  //            Monomer A HF           //
    Molecular point group: c1
  Multiplicity = 1
  Basis Set: AUG-CC-PVTZ
    Blend: AUG-CC-PVTZ
  Basis Set: (AUG-CC-PVTZ AUX)
    Blend: AUG-CC-PVTZ-JKFIT
  @DF-RHF Final Energy: -2572.53373260521994
    Total Energy =                      -2572.5337326052199387
  //            Monomer B HF           //
    Molecular point group: c1

    Geometry (in Angstrom), charge = 0, multiplicity = 1:

       Center              X                  Y                   Z               Mass
    ------------   -----------------  -----------------  -----------------  -----------------
      Gh(BR)          0.000000000000     0.000000000000     0.000000000000    78.918337600000
         O           -2.114396000000    -0.823968000000    -2.451740000000    15.994914619570
         H           -1.344934000000    -0.815549000000    -1.892709000000     1.007825032230
         H           -2.578301000000    -1.686826000000    -2.349784000000     1.007825032230
         O           -2.840106000000    -0.818403000000     1.694288000000    15.994914619570
         H           -2.923211000000    -1.709126000000     1.352216000000     1.007825032230
         H           -1.976154000000    -0.530056000000     1.405183000000     1.007825032230
         O            0.359761000000    -1.678973000000     2.757291000000    15.994914619570
         H            0.155656000000    -1.071042000000     3.436648000000     1.007825032230
         H            0.309349000000    -1.206416000000     1.893897000000     1.007825032230
         O           -0.002582000000    -3.436636000000     0.122679000000    15.994914619570
         H           -0.128662000000    -2.474547000000     0.122748000000     1.007825032230
         H            0.840782000000    -3.640659000000    -0.311875000000     1.007825032230
         O            3.119434000000    -1.374833000000    -0.676470000000    15.994914619570
         H            2.298457000000    -1.110581000000    -0.190519000000     1.007825032230
         H            3.320939000000    -2.236567000000    -0.244513000000     1.007825032230

  Charge       = 0
  Multiplicity = 1
  Basis Set: AUG-CC-PVTZ
    Blend: AUG-CC-PVTZ
  Basis Set: (AUG-CC-PVTZ AUX)
    Blend: AUG-CC-PVTZ-JKFIT

    Orbital Energies [Eh]
    ---------------------

    Doubly Occupied:

       1A    -20.597091     2A    -20.595118     3A    -20.589640
       4A    -20.578476     5A    -20.578286     6A     -1.375187
       7A     -1.371002     8A     -1.365104     9A     -1.363927
      10A     -1.356683    11A     -0.755606    12A     -0.740729
      13A     -0.732180    14A     -0.729659    15A     -0.717584
      16A     -0.610730    17A     -0.601489    18A     -0.598329
      19A     -0.594788    20A     -0.584722    21A     -0.537100
      22A     -0.532332    23A     -0.531490    24A     -0.520622
      25A     -0.517095

  @DF-RHF Final Energy:  -380.28095131972435

   => Energetics <=

    Nuclear Repulsion Energy =            170.7179211270941437
    One-Electron Energy =                -863.8478039424235249
    Two-Electron Energy =                 312.8489314956050862
    Total Energy =                       -380.2809513197243518
 Dipole X            :         26.7985460          -26.1711780            0.6273680
 Dipole Y            :        153.8331342         -154.0955872           -0.2624530
 Dipole Z            :        -27.6410689           27.9484371            0.3073682
 Magnitude           :                                                    0.7462890

    SAPT Results
  --------------------------------------------------------------------------------------------------------
    Electrostatics                -98.27743593 [mEh]     -61.67002211 [kcal/mol]    -258.02737249 [kJ/mol]
      Elst10,r                    -97.85067246 [mEh]     -61.40222398 [kcal/mol]    -256.90690514 [kJ/mol]
      Elst12,r                     -0.42676348 [mEh]      -0.26779812 [kcal/mol]      -1.12046735 [kJ/mol]

    Exchange                       80.85273996 [mEh]      50.73586031 [kcal/mol]     212.27883952 [kJ/mol]
      Exch10                       72.02095122 [mEh]      45.19382920 [kcal/mol]     189.09098138 [kJ/mol]
      Exch10(S^2)                  70.99862564 [mEh]      44.55231022 [kcal/mol]     186.40686595 [kJ/mol]
      Exch11(S^2)                   3.29470060 [mEh]       2.06745584 [kcal/mol]       8.65023524 [kJ/mol]
      Exch12(S^2)                   5.53708814 [mEh]       3.47457526 [kcal/mol]      14.53762291 [kJ/mol]

    Induction                     -39.01624627 [mEh]     -24.48306417 [kcal/mol]    -102.43714047 [kJ/mol]
      Ind20,r                     -63.94333983 [mEh]     -40.12505153 [kcal/mol]    -167.88321558 [kJ/mol]
      Ind22                        -8.25842497 [mEh]      -5.18223991 [kcal/mol]     -21.68249178 [kJ/mol]
      Exch-Ind20,r                 38.39143693 [mEh]      24.09099039 [kcal/mol]     100.79670377 [kJ/mol]
      Exch-Ind22                    4.95833972 [mEh]       3.11140515 [kcal/mol]      13.01811913 [kJ/mol]
      delta HF,r (2)              -10.16425812 [mEh]      -6.37816826 [kcal/mol]     -26.68625601 [kJ/mol]

    Dispersion                    -28.62190551 [mEh]     -17.96051687 [kcal/mol]     -75.14680258 [kJ/mol]
      Disp20                      -32.59067394 [mEh]     -20.45095665 [kcal/mol]     -85.56680263 [kJ/mol]
      Disp21                        2.48680853 [mEh]       1.56049591 [kcal/mol]       6.52911490 [kJ/mol]
      Disp22 (SDQ)                 -0.08740378 [mEh]      -0.05484670 [kcal/mol]      -0.22947858 [kJ/mol]
      Disp22 (T)                   -5.20752873 [mEh]      -3.26777361 [kcal/mol]     -13.67236479 [kJ/mol]
      Est. Disp22 (T)              -5.93649834 [mEh]      -3.72520895 [kcal/mol]     -15.58627425 [kJ/mol]
      Exch-Disp20                   7.50586201 [mEh]       4.70999952 [kcal/mol]      19.70663799 [kJ/mol]

  Total HF                        -61.54588225 [mEh]     -38.62062418 [kcal/mol]    -161.58869159 [kJ/mol]
  Total SAPT0                     -86.63069418 [mEh]     -54.36158132 [kcal/mol]    -227.44885623 [kJ/mol]
  Total SAPT2                     -81.52575417 [mEh]     -51.15818310 [kcal/mol]    -214.04583808 [kJ/mol]
  Total SAPT2+                    -85.06284776 [mEh]     -53.37774283 [kcal/mol]    -223.33247601 [kJ/mol]

  Special recipe for scaled SAPT0 (see Manual):
    Electrostatics sSAPT0         -97.85067246 [mEh]     -61.40222398 [kcal/mol]    -256.90690514 [kJ/mol]
    Exchange sSAPT0                72.02095122 [mEh]      45.19382920 [kcal/mol]     189.09098138 [kJ/mol]
    Induction sSAPT0              -34.03374495 [mEh]     -21.35649739 [kcal/mol]     -89.35558507 [kJ/mol]
    Dispersion sSAPT0             -24.75588486 [mEh]     -15.53455228 [kcal/mol]     -64.99656675 [kJ/mol]
  Total sSAPT0                    -84.61935105 [mEh]     -53.09944445 [kcal/mol]    -222.16807558 [kJ/mol]
  --------------------------------------------------------------------------------------------------------

*** Psi4 exiting successfully. Buy a developer a beer!
