                               Psi4 1.8.2 release

  ==> Input File <==

--------------------------------------------------------------------------
MEMORY 60 GB

molecule dimer {
-1 1
Br     0.000000     0.000000     0.000000
--
0 1
O      0.341150     0.776241    -3.513535
H      0.559687     1.745389    -3.643795
H      0.259971     0.595020    -2.572308
O     -3.228866     0.199860     1.064817
H     -2.554272    -0.465074     0.898206
H     -4.003385    -0.263674     1.419464
O     -1.501421     2.694653    -1.037470
H     -1.857259     2.772058    -1.919008
H     -1.054329     1.848031    -0.932673
O      2.688093     2.201399    -0.380651
H      2.548789     3.054275    -0.789423
H      1.816747     1.792628    -0.342110

units ang
no_reorient
no_com
symmetry c1
}

set {
basis        aug-cc-pVTZ
scf_type     df
}

energy("sapt2+")
--------------------------------------------------------------------------

  //              Dimer HF             //
    Molecular point group: c1
  Charge       = -1
  Multiplicity = 1
  Basis Set: AUG-CC-PVTZ
    Blend: AUG-CC-PVTZ
  Basis Set: (AUG-CC-PVTZ AUX)
    Blend: AUG-CC-PVTZ-JKFIT
  @DF-RHF Final Energy: -2876.80525577047001
    Total Energy =                      -2876.8052557704695573
 Dipole X            :         33.3373966          -33.8117414           -0.4743448
 Dipole Y            :       -110.7591338          109.7097075           -1.0494263
 Dipole Z            :         73.7870030          -73.3522877            0.4347154
 Magnitude           :                                                    1.2309655
  //            Monomer A HF           //
    Molecular point group: c1
  Multiplicity = 1
  Basis Set: AUG-CC-PVTZ
    Blend: AUG-CC-PVTZ
  Basis Set: (AUG-CC-PVTZ AUX)
    Blend: AUG-CC-PVTZ-JKFIT
  @DF-RHF Final Energy: -2572.53371607785130
    Total Energy =                      -2572.5337160778508405
  //            Monomer B HF           //
    Molecular point group: c1

    Geometry (in Angstrom), charge = 0, multiplicity = 1:

       Center              X                  Y                   Z               Mass
    ------------   -----------------  -----------------  -----------------  -----------------
      Gh(BR)          0.000000000000     0.000000000000     0.000000000000    78.918337600000
         O            0.341150000000     0.776241000000    -3.513535000000    15.994914619570
         H            0.559687000000     1.745389000000    -3.643795000000     1.007825032230
         H            0.259971000000     0.595020000000    -2.572308000000     1.007825032230
         O           -3.228866000000     0.199860000000     1.064817000000    15.994914619570
         H           -2.554272000000    -0.465074000000     0.898206000000     1.007825032230
         H           -4.003385000000    -0.263674000000     1.419464000000     1.007825032230
         O           -1.501421000000     2.694653000000    -1.037470000000    15.994914619570
         H           -1.857259000000     2.772058000000    -1.919008000000     1.007825032230
         H           -1.054329000000     1.848031000000    -0.932673000000     1.007825032230
         O            2.688093000000     2.201399000000    -0.380651000000    15.994914619570
         H            2.548789000000     3.054275000000    -0.789423000000     1.007825032230
         H            1.816747000000     1.792628000000    -0.342110000000     1.007825032230

  Charge       = 0
  Multiplicity = 1
  Basis Set: AUG-CC-PVTZ
    Blend: AUG-CC-PVTZ
  Basis Set: (AUG-CC-PVTZ AUX)
    Blend: AUG-CC-PVTZ-JKFIT

    Orbital Energies [Eh]
    ---------------------

    Doubly Occupied:

       1A    -20.584140     2A    -20.573979     3A    -20.573717
       4A    -20.573031     5A     -1.358604     6A     -1.358074
       7A     -1.353300     8A     -1.353056     9A     -0.738063
      10A     -0.727565    11A     -0.724461    12A     -0.723780
      13A     -0.590907    14A     -0.587835    15A     -0.583476
      16A     -0.579040    17A     -0.522329    18A     -0.517269
      19A     -0.515698    20A     -0.513597

  @DF-RHF Final Energy:  -304.23196387194486

   => Energetics <=

    Nuclear Repulsion Energy =            108.9026447400282080
    One-Electron Energy =                -636.1653762356078232
    Two-Electron Energy =                 223.0307676236347447
    Total Energy =                       -304.2319638719448562
 Dipole X            :         33.1771751          -33.8117414           -0.6345663
 Dipole Y            :       -110.1226144          109.7097075           -0.4129069
 Dipole Z            :         73.2441493          -73.3522877           -0.1081384
 Magnitude           :                                                    0.7647617

    SAPT Results
  --------------------------------------------------------------------------------------------------------
    Electrostatics                -61.27577766 [mEh]     -38.45113100 [kcal/mol]    -160.87953209 [kJ/mol]
      Elst10,r                    -60.35788354 [mEh]     -37.87514374 [kcal/mol]    -158.46960141 [kJ/mol]
      Elst12,r                     -0.91789412 [mEh]      -0.57598726 [kcal/mol]      -2.40993068 [kJ/mol]

    Exchange                       48.94209111 [mEh]      30.71162584 [kcal/mol]     128.49744251 [kJ/mol]
      Exch10                       43.93144283 [mEh]      27.56739657 [kcal/mol]     115.34198725 [kJ/mol]
      Exch10(S^2)                  43.42904590 [mEh]      27.25213774 [kcal/mol]     114.02294430 [kJ/mol]
      Exch11(S^2)                   1.60825374 [mEh]       1.00919446 [kcal/mol]       4.22246962 [kJ/mol]
      Exch12(S^2)                   3.40239454 [mEh]       2.13503481 [kcal/mol]       8.93298563 [kJ/mol]

    Induction                     -24.96950251 [mEh]     -15.66859938 [kcal/mol]     -65.55741980 [kJ/mol]
      Ind20,r                     -40.26350761 [mEh]     -25.26573247 [kcal/mol]    -105.71182467 [kJ/mol]
      Ind22                        -4.52541820 [mEh]      -2.83974279 [kcal/mol]     -11.88148385 [kJ/mol]
      Exch-Ind20,r                 24.06953062 [mEh]      15.10385849 [kcal/mol]      63.19454394 [kJ/mol]
      Exch-Ind22                    2.70529565 [mEh]       1.69759865 [kcal/mol]       7.10275275 [kJ/mol]
      delta HF,r (2)               -6.95540297 [mEh]      -4.36458126 [kcal/mol]     -18.26140797 [kJ/mol]

    Dispersion                    -18.74411877 [mEh]     -11.76211210 [kcal/mol]     -49.21267704 [kJ/mol]
      Disp20                      -21.25928642 [mEh]     -13.34040363 [kcal/mol]     -55.81624880 [kJ/mol]
      Disp21                        1.52816315 [mEh]       0.95893685 [kcal/mol]       4.01219179 [kJ/mol]
      Disp22 (SDQ)                  0.03414821 [mEh]       0.02142832 [kcal/mol]       0.08965611 [kJ/mol]
      Disp22 (T)                   -3.31410761 [mEh]      -2.07963392 [kcal/mol]      -8.70118834 [kJ/mol]
      Est. Disp22 (T)              -3.81922738 [mEh]      -2.39660136 [kcal/mol]     -10.02738011 [kJ/mol]
      Exch-Disp20                   4.77208368 [mEh]       2.99452772 [kcal/mol]      12.52910397 [kJ/mol]

  Total HF                        -39.57582067 [mEh]     -24.83420241 [kcal/mol]    -103.90630286 [kJ/mol]
  Total SAPT0                     -56.06302341 [mEh]     -35.18007832 [kcal/mol]    -147.19344770 [kJ/mol]
  Total SAPT2                     -53.79039180 [mEh]     -33.75398045 [kcal/mol]    -141.22665422 [kJ/mol]
  Total SAPT2+                    -56.04730783 [mEh]     -35.17021664 [kcal/mol]    -147.15218642 [kJ/mol]

  Special recipe for scaled SAPT0 (see Manual):
    Electrostatics sSAPT0         -60.35788354 [mEh]     -37.87514374 [kcal/mol]    -158.46960141 [kJ/mol]
    Exchange sSAPT0                43.93144283 [mEh]      27.56739657 [kcal/mol]     115.34198725 [kJ/mol]
    Induction sSAPT0              -22.30435431 [mEh]     -13.99619364 [kcal/mol]     -58.56007417 [kJ/mol]
    Dispersion sSAPT0             -16.31966590 [mEh]     -10.24074496 [kcal/mol]     -42.84727692 [kJ/mol]
  Total sSAPT0                    -55.05046093 [mEh]     -34.54468577 [kcal/mol]    -144.53496525 [kJ/mol]
  --------------------------------------------------------------------------------------------------------

*** Psi4 exiting successfully. Buy a developer a beer!
