                               Psi4 1.8.2 release

  ==> Input File <==

--------------------------------------------------------------------------
MEMORY 60 GB

molecule dimer {
-1 1
Br     0.000000     0.000000     0.000000
--
0 1
O      0.782416    -0.121722     3.451600
H      0.936067    -0.092172     2.515779
H      1.418512     0.518629     3.809706
O      1.279830    -3.033150    -0.407853
H      0.932121    -2.105125    -0.536490
H      0.609558    -3.519657    -0.884449
O      1.071152     0.493703    -3.362487
H      0.775103     0.547864    -2.430413
H      1.344659     1.412062    -3.545358
O      3.119203     1.381929    -0.509772
H      2.304215     1.804893    -0.549245
H      2.978825     0.669854     0.131836
O     -2.613665     2.025634    -0.945890
H     -1.791721     1.633691    -0.632163
H     -3.281718     1.715110    -0.285048
O      1.070902     3.348536    -0.645640
H      1.491858     4.117923    -0.937238
H      0.258142     3.643921    -0.280463

units ang
no_reorient
no_com
symmetry c1
}

set {
basis        aug-cc-pVTZ
scf_type     df
}

energy("sapt2+")
--------------------------------------------------------------------------

  //              Dimer HF             //
    Molecular point group: c1
  Charge       = -1
  Multiplicity = 1
  Basis Set: AUG-CC-PVTZ
    Blend: AUG-CC-PVTZ
  Basis Set: (AUG-CC-PVTZ AUX)
    Blend: AUG-CC-PVTZ-JKFIT
  @DF-RHF Final Energy: -3028.93754638377322
    Total Energy =                      -3028.9375463837736788
 Dipole X            :        -87.5302441           86.2741707           -1.2560734
 Dipole Y            :        -80.0344951           81.4593526            1.4248575
 Dipole Z            :         44.3922190          -43.4332423            0.9589768
 Magnitude           :                                                    2.1278101
  //            Monomer A HF           //
    Molecular point group: c1
  Multiplicity = 1
  Basis Set: AUG-CC-PVTZ
    Blend: AUG-CC-PVTZ
  Basis Set: (AUG-CC-PVTZ AUX)
    Blend: AUG-CC-PVTZ-JKFIT
  @DF-RHF Final Energy: -2572.53373000219563
    Total Energy =                      -2572.5337300021956253
  //            Monomer B HF           //
    Molecular point group: c1

    Geometry (in Angstrom), charge = 0, multiplicity = 1:

       Center              X                  Y                   Z               Mass
    ------------   -----------------  -----------------  -----------------  -----------------
      Gh(BR)          0.000000000000     0.000000000000     0.000000000000    78.918337600000
         O            0.782416000000    -0.121722000000     3.451600000000    15.994914619570
         H            0.936067000000    -0.092172000000     2.515779000000     1.007825032230
         H            1.418512000000     0.518629000000     3.809706000000     1.007825032230
         O            1.279830000000    -3.033150000000    -0.407853000000    15.994914619570
         H            0.932121000000    -2.105125000000    -0.536490000000     1.007825032230
         H            0.609558000000    -3.519657000000    -0.884449000000     1.007825032230
         O            1.071152000000     0.493703000000    -3.362487000000    15.994914619570
         H            0.775103000000     0.547864000000    -2.430413000000     1.007825032230
         H            1.344659000000     1.412062000000    -3.545358000000     1.007825032230
         O            3.119203000000     1.381929000000    -0.509772000000    15.994914619570
         H            2.304215000000     1.804893000000    -0.549245000000     1.007825032230
         H            2.978825000000     0.669854000000     0.131836000000     1.007825032230
         O           -2.613665000000     2.025634000000    -0.945890000000    15.994914619570
         H           -1.791721000000     1.633691000000    -0.632163000000     1.007825032230
         H           -3.281718000000     1.715110000000    -0.285048000000     1.007825032230
         O            1.070902000000     3.348536000000    -0.645640000000    15.994914619570
         H            1.491858000000     4.117923000000    -0.937238000000     1.007825032230
         H            0.258142000000     3.643921000000    -0.280463000000     1.007825032230

  Charge       = 0
  Multiplicity = 1
  Basis Set: AUG-CC-PVTZ
    Blend: AUG-CC-PVTZ
  Basis Set: (AUG-CC-PVTZ AUX)
    Blend: AUG-CC-PVTZ-JKFIT

    Orbital Energies [Eh]
    ---------------------

    Doubly Occupied:

       1A    -20.601983     2A    -20.589720     3A    -20.579257
       4A    -20.576364     5A    -20.566633     6A    -20.555071
       7A     -1.409580     8A     -1.364106     9A     -1.363585
      10A     -1.354270    11A     -1.350815    12A     -1.340013
      13A     -0.774459    14A     -0.726153    15A     -0.724741
      16A     -0.723829    17A     -0.701404    18A     -0.698120
      19A     -0.634660    20A     -0.601770    21A     -0.596846
      22A     -0.594002    23A     -0.581492    24A     -0.579287
      25A     -0.555030    26A     -0.527860    27A     -0.521418
      28A     -0.513586    29A     -0.508672    30A     -0.499098

  @DF-RHF Final Energy:  -456.35571610661412

   => Energetics <=

    Nuclear Repulsion Energy =            225.0817002066006864
    One-Electron Energy =               -1077.4471813882782953
    Two-Electron Energy =                 396.0097650750635125
    Total Energy =                       -456.3557161066141248
 Dipole X            :        -87.2873460           86.2741707           -1.0131753
 Dipole Y            :        -79.8723628           81.4593526            1.5869898
 Dipole Z            :         44.1917683          -43.4332423            0.7585261
 Magnitude           :                                                    2.0298824

    SAPT Results
  --------------------------------------------------------------------------------------------------------
    Electrostatics                -79.69412037 [mEh]     -50.00881554 [kcal/mol]    -209.23688420 [kJ/mol]
      Elst10,r                    -79.07954315 [mEh]     -49.62316251 [kcal/mol]    -207.62331193 [kJ/mol]
      Elst12,r                     -0.61457722 [mEh]      -0.38565303 [kcal/mol]      -1.61357227 [kJ/mol]

    Exchange                       63.44826033 [mEh]      39.81438445 [kcal/mol]     166.58338453 [kJ/mol]
      Exch10                       55.90034192 [mEh]      35.07799414 [kcal/mol]     146.76632748 [kJ/mol]
      Exch10(S^2)                  55.45913957 [mEh]      34.80113549 [kcal/mol]     145.60795088 [kJ/mol]
      Exch11(S^2)                   2.68569537 [mEh]       1.68529929 [kcal/mol]       7.05129221 [kJ/mol]
      Exch12(S^2)                   4.86222304 [mEh]       3.05109102 [kcal/mol]      12.76576484 [kJ/mol]

    Induction                     -27.54248036 [mEh]     -17.28316736 [kcal/mol]     -72.31277223 [kJ/mol]
      Ind20,r                     -49.40942560 [mEh]     -31.00488266 [kcal/mol]    -129.72442904 [kJ/mol]
      Ind22                        -6.89202999 [mEh]      -4.32481411 [kcal/mol]     -18.09502224 [kJ/mol]
      Exch-Ind20,r                 30.61638554 [mEh]      19.21207198 [kcal/mol]      80.38330915 [kJ/mol]
      Exch-Ind22                    4.27062336 [mEh]       2.67985662 [kcal/mol]      11.21252009 [kJ/mol]
      delta HF,r (2)               -6.12803367 [mEh]      -3.84539918 [kcal/mol]     -16.08915018 [kJ/mol]

    Dispersion                    -26.12263142 [mEh]     -16.39219870 [kcal/mol]     -68.58495935 [kJ/mol]
      Disp20                      -29.29700698 [mEh]     -18.38414943 [kcal/mol]     -76.91928123 [kJ/mol]
      Disp21                        2.10473990 [mEh]       1.32074423 [kcal/mol]       5.52599385 [kJ/mol]
      Disp22 (SDQ)                 -0.11835087 [mEh]      -0.07426629 [kcal/mol]      -0.31073017 [kJ/mol]
      Disp22 (T)                   -4.65178414 [mEh]      -2.91903862 [kcal/mol]     -12.21325759 [kJ/mol]
      Est. Disp22 (T)              -5.39283163 [mEh]      -3.38405294 [kcal/mol]     -14.15887750 [kJ/mol]
      Exch-Disp20                   6.58081816 [mEh]       4.12952574 [kcal/mol]      17.27793569 [kJ/mol]

  Total HF                        -48.10027496 [mEh]     -30.18337823 [kcal/mol]    -126.28725452 [kJ/mol]
  Total SAPT0                     -70.81646378 [mEh]     -44.43800192 [kcal/mol]    -185.92860005 [kJ/mol]
  Total SAPT2                     -66.50452923 [mEh]     -41.73222214 [kcal/mol]    -174.60761743 [kJ/mol]
  Total SAPT2+                    -69.91097183 [mEh]     -43.86979714 [kcal/mol]    -183.55123125 [kJ/mol]

  Special recipe for scaled SAPT0 (see Manual):
    Electrostatics sSAPT0         -79.07954315 [mEh]     -49.62316251 [kcal/mol]    -207.62331193 [kJ/mol]
    Exchange sSAPT0                55.90034192 [mEh]      35.07799414 [kcal/mol]     146.76632748 [kJ/mol]
    Induction sSAPT0              -24.18454399 [mEh]     -15.17603047 [kcal/mol]     -63.49651150 [kJ/mol]
    Dispersion sSAPT0             -22.55787594 [mEh]     -14.15528086 [kcal/mol]     -59.22569511 [kJ/mol]
  Total sSAPT0                    -69.92162116 [mEh]     -43.87647970 [kcal/mol]    -183.57919106 [kJ/mol]
  --------------------------------------------------------------------------------------------------------

*** Psi4 exiting successfully. Buy a developer a beer!
