                               Psi4 1.8.2 release

  ==> Input File <==

--------------------------------------------------------------------------
MEMORY 60 GB

molecule dimer {
-1 1
Br     0.000000     0.000000     0.000000
--
0 1
O     -0.046525    -2.172810     2.388371
H      0.192961    -2.058591     3.276470
H      0.227483    -1.447125     1.853069
O     -3.001582    -1.688367    -0.659378
H     -3.051597    -2.464025    -0.091192
H     -2.107316    -1.279153    -0.589440
O      1.202238     1.886794     2.696986
H      0.703236     1.368206     2.070104
H      0.555514     2.123391     3.374762
O      0.642071     3.088985    -0.348066
H      0.818347     3.560490     0.475379
H      0.241245     2.278483    -0.088040
O     -1.743083     0.570150     2.511522
H     -1.402890     0.297354     1.627315
H     -2.233465    -0.240456     2.843953

units ang
no_reorient
no_com
symmetry c1
}

set {
basis        aug-cc-pVTZ
scf_type     df
}

energy("sapt2+")
--------------------------------------------------------------------------

  //              Dimer HF             //
    Molecular point group: c1
  Charge       = -1
  Multiplicity = 1
  Basis Set: AUG-CC-PVTZ
    Blend: AUG-CC-PVTZ
  Basis Set: (AUG-CC-PVTZ AUX)
    Blend: AUG-CC-PVTZ-JKFIT
  @DF-RHF Final Energy: -2952.87554620251922
    Total Energy =                      -2952.8755462025187626
 Dipole X            :         56.3294701          -55.9954764            0.3339937
 Dipole Y            :        -30.4760275           29.5110781           -0.9649494
 Dipole Z            :       -127.2117099          127.4957777            0.2840677
 Magnitude           :                                                    1.0598932
  //            Monomer A HF           //
    Molecular point group: c1
  Multiplicity = 1
  Basis Set: AUG-CC-PVTZ
    Blend: AUG-CC-PVTZ
  Basis Set: (AUG-CC-PVTZ AUX)
    Blend: AUG-CC-PVTZ-JKFIT
  @DF-RHF Final Energy: -2572.53373649488958
    Total Energy =                      -2572.5337364948895811
  //            Monomer B HF           //
    Molecular point group: c1

    Geometry (in Angstrom), charge = 0, multiplicity = 1:

       Center              X                  Y                   Z               Mass
    ------------   -----------------  -----------------  -----------------  -----------------
      Gh(BR)          0.000000000000     0.000000000000     0.000000000000    78.918337600000
         O           -0.046525000000    -2.172810000000     2.388371000000    15.994914619570
         H            0.192961000000    -2.058591000000     3.276470000000     1.007825032230
         H            0.227483000000    -1.447125000000     1.853069000000     1.007825032230
         O           -3.001582000000    -1.688367000000    -0.659378000000    15.994914619570
         H           -3.051597000000    -2.464025000000    -0.091192000000     1.007825032230
         H           -2.107316000000    -1.279153000000    -0.589440000000     1.007825032230
         O            1.202238000000     1.886794000000     2.696986000000    15.994914619570
         H            0.703236000000     1.368206000000     2.070104000000     1.007825032230
         H            0.555514000000     2.123391000000     3.374762000000     1.007825032230
         O            0.642071000000     3.088985000000    -0.348066000000    15.994914619570
         H            0.818347000000     3.560490000000     0.475379000000     1.007825032230
         H            0.241245000000     2.278483000000    -0.088040000000     1.007825032230
         O           -1.743083000000     0.570150000000     2.511522000000    15.994914619570
         H           -1.402890000000     0.297354000000     1.627315000000     1.007825032230
         H           -2.233465000000    -0.240456000000     2.843953000000     1.007825032230

  Charge       = 0
  Multiplicity = 1
  Basis Set: AUG-CC-PVTZ
    Blend: AUG-CC-PVTZ
  Basis Set: (AUG-CC-PVTZ AUX)
    Blend: AUG-CC-PVTZ-JKFIT

    Orbital Energies [Eh]
    ---------------------

    Doubly Occupied:

       1A    -20.603371     2A    -20.586015     3A    -20.581033
       4A    -20.580450     5A    -20.566481     6A     -1.387351
       7A     -1.368293     8A     -1.364303     9A     -1.356009
      10A     -1.354616    11A     -0.772691    12A     -0.734260
      13A     -0.731482    14A     -0.724923    15A     -0.722367
      16A     -0.615101    17A     -0.602756    18A     -0.595990
      19A     -0.586521    20A     -0.583824    21A     -0.546082
      22A     -0.529328    23A     -0.523185    24A     -0.520198
      25A     -0.510472

  @DF-RHF Final Energy:  -380.29147121468907

   => Energetics <=

    Nuclear Repulsion Energy =            172.7366554980578144
    One-Electron Energy =                -867.9620421297506709
    Two-Electron Energy =                 314.9339154170037318
    Total Energy =                       -380.2914712146890679
 Dipole X            :         55.8323564          -55.9954764           -0.1631200
 Dipole Y            :        -30.3504089           29.5110781           -0.8393308
 Dipole Z            :       -126.2810428          127.4957777            1.2147348
 Magnitude           :                                                    1.4854848

    SAPT Results
  --------------------------------------------------------------------------------------------------------
    Electrostatics               -102.21098801 [mEh]     -64.13836330 [kcal/mol]    -268.35491204 [kJ/mol]
      Elst10,r                   -100.68444594 [mEh]     -63.18044369 [kcal/mol]    -264.34697638 [kJ/mol]
      Elst12,r                     -1.52654207 [mEh]      -0.95791961 [kcal/mol]      -4.00793565 [kJ/mol]

    Exchange                       98.64069315 [mEh]      61.89796945 [kcal/mol]     258.98110417 [kJ/mol]
      Exch10                       89.02206639 [mEh]      55.86219003 [kcal/mol]     233.72740310 [kJ/mol]
      Exch10(S^2)                  87.37325507 [mEh]      54.82754531 [kcal/mol]     229.39844958 [kJ/mol]
      Exch11(S^2)                   3.44448520 [mEh]       2.16144710 [kcal/mol]       9.04349465 [kJ/mol]
      Exch12(S^2)                   6.17414156 [mEh]       3.87433232 [kcal/mol]      16.21020642 [kJ/mol]

    Induction                     -42.09668204 [mEh]     -26.41606680 [kcal/mol]    -110.52482347 [kJ/mol]
      Ind20,r                     -75.79712874 [mEh]     -47.56341637 [kcal/mol]    -199.00533409 [kJ/mol]
      Ind22                        -9.39791578 [mEh]      -5.89728118 [kcal/mol]     -24.67422447 [kJ/mol]
      Exch-Ind20,r                 48.20917324 [mEh]      30.25171293 [kcal/mol]     126.57316690 [kJ/mol]
      Exch-Ind22                    5.97734713 [mEh]       3.75084195 [kcal/mol]      15.69352272 [kJ/mol]
      delta HF,r (2)              -11.08815789 [mEh]      -6.95792412 [kcal/mol]     -29.11195454 [kJ/mol]

    Dispersion                    -31.59131442 [mEh]     -19.82384909 [kcal/mol]     -82.94298458 [kJ/mol]
      Disp20                      -36.94811200 [mEh]     -23.18529032 [kcal/mol]     -97.00725468 [kJ/mol]
      Disp21                        2.97452228 [mEh]       1.86654091 [kcal/mol]       7.80960718 [kJ/mol]
      Disp22 (SDQ)                  0.06757828 [mEh]       0.04240601 [kcal/mol]       0.17742676 [kJ/mol]
      Disp22 (T)                   -5.74702096 [mEh]      -3.60631010 [kcal/mol]     -15.08880145 [kJ/mol]
      Est. Disp22 (T)              -6.51554135 [mEh]      -4.08856392 [kcal/mol]     -17.10655146 [kJ/mol]
      Exch-Disp20                   8.83023836 [mEh]       5.54105823 [kcal/mol]      23.18378763 [kJ/mol]

  Total HF                        -50.33849294 [mEh]     -31.58788122 [kcal/mol]    -132.16369501 [kJ/mol]
  Total SAPT0                     -78.45636657 [mEh]     -49.23211330 [kcal/mol]    -205.98716206 [kJ/mol]
  Total SAPT2                     -73.78485054 [mEh]     -46.30069273 [kcal/mol]    -193.72209839 [kJ/mol]
  Total SAPT2+                    -77.25829132 [mEh]     -48.48030973 [kcal/mol]    -202.84161591 [kJ/mol]

  Special recipe for scaled SAPT0 (see Manual):
    Electrostatics sSAPT0        -100.68444594 [mEh]     -63.18044369 [kcal/mol]    -264.34697638 [kJ/mol]
    Exchange sSAPT0                89.02206639 [mEh]      55.86219003 [kcal/mol]     233.72740310 [kJ/mol]
    Induction sSAPT0              -35.89503563 [mEh]     -22.52447492 [kcal/mol]     -94.24240306 [kJ/mol]
    Dispersion sSAPT0             -27.60847723 [mEh]     -17.32458102 [kcal/mol]     -72.48604698 [kJ/mol]
  Total sSAPT0                    -75.16589241 [mEh]     -47.16730959 [kcal/mol]    -197.34802332 [kJ/mol]
  --------------------------------------------------------------------------------------------------------

*** Psi4 exiting successfully. Buy a developer a beer!
