                               Psi4 1.8.2 release

  ==> Input File <==

--------------------------------------------------------------------------
MEMORY 60 GB

molecule dimer {
-1 1
Br     0.000000     0.000000     0.000000
--
0 1
O      0.735787    -1.007456    -3.069810
H      0.644497    -0.834554    -2.122033
H      0.006923    -0.466036    -3.438270
O     -1.018718    -3.113955    -0.290668
H     -0.721929    -2.218123    -0.066292
H     -1.485195    -3.443926     0.484674
O      0.210699    -0.756624     3.212958
H     -0.457413    -0.410318     3.755700
H     -0.069501    -0.614574     2.311108
O     -2.962023    -1.017792    -1.096322
H     -3.354668    -1.449903    -0.277945
H     -2.162494    -0.558488    -0.874702
O      2.892807    -1.828066    -0.264556
H      2.681291    -1.012210     0.216583
H      2.150125    -2.389570    -0.124064

units ang
no_reorient
no_com
symmetry c1
}

set {
basis        aug-cc-pVTZ
scf_type     df
}

energy("sapt2+")
--------------------------------------------------------------------------

  //              Dimer HF             //
    Molecular point group: c1
  Charge       = -1
  Multiplicity = 1
  Basis Set: AUG-CC-PVTZ
    Blend: AUG-CC-PVTZ
  Basis Set: (AUG-CC-PVTZ AUX)
    Blend: AUG-CC-PVTZ-JKFIT
  @DF-RHF Final Energy: -2952.87235440280028
    Total Energy =                      -2952.8723544028007382
 Dipole X            :          6.0184571           -7.3698336           -1.3513765
 Dipole Y            :        144.1163312         -142.0863266            2.0300045
 Dipole Z            :         24.9189122          -23.0592413            1.8596708
 Magnitude           :                                                    3.0668408
  //            Monomer A HF           //
    Molecular point group: c1
  Multiplicity = 1
  Basis Set: AUG-CC-PVTZ
    Blend: AUG-CC-PVTZ
  Basis Set: (AUG-CC-PVTZ AUX)
    Blend: AUG-CC-PVTZ-JKFIT
  @DF-RHF Final Energy: -2572.53373202633293
    Total Energy =                      -2572.5337320263329275
  //            Monomer B HF           //
    Molecular point group: c1

    Geometry (in Angstrom), charge = 0, multiplicity = 1:

       Center              X                  Y                   Z               Mass
    ------------   -----------------  -----------------  -----------------  -----------------
      Gh(BR)          0.000000000000     0.000000000000     0.000000000000    78.918337600000
         O            0.735787000000    -1.007456000000    -3.069810000000    15.994914619570
         H            0.644497000000    -0.834554000000    -2.122033000000     1.007825032230
         H            0.006923000000    -0.466036000000    -3.438270000000     1.007825032230
         O           -1.018718000000    -3.113955000000    -0.290668000000    15.994914619570
         H           -0.721929000000    -2.218123000000    -0.066292000000     1.007825032230
         H           -1.485195000000    -3.443926000000     0.484674000000     1.007825032230
         O            0.210699000000    -0.756624000000     3.212958000000    15.994914619570
         H           -0.457413000000    -0.410318000000     3.755700000000     1.007825032230
         H           -0.069501000000    -0.614574000000     2.311108000000     1.007825032230
         O           -2.962023000000    -1.017792000000    -1.096322000000    15.994914619570
         H           -3.354668000000    -1.449903000000    -0.277945000000     1.007825032230
         H           -2.162494000000    -0.558488000000    -0.874702000000     1.007825032230
         O            2.892807000000    -1.828066000000    -0.264556000000    15.994914619570
         H            2.681291000000    -1.012210000000     0.216583000000     1.007825032230
         H            2.150125000000    -2.389570000000    -0.124064000000     1.007825032230

  Charge       = 0
  Multiplicity = 1
  Basis Set: AUG-CC-PVTZ
    Blend: AUG-CC-PVTZ
  Basis Set: (AUG-CC-PVTZ AUX)
    Blend: AUG-CC-PVTZ-JKFIT

    Orbital Energies [Eh]
    ---------------------

    Doubly Occupied:

       1A    -20.592344     2A    -20.588214     3A    -20.583041
       4A    -20.569416     5A    -20.569138     6A     -1.389372
       7A     -1.369718     8A     -1.356648     9A     -1.356245
      10A     -1.344947    11A     -0.759988    12A     -0.740841
      13A     -0.731741    14A     -0.720867    15A     -0.700669
      16A     -0.611868    17A     -0.600773    18A     -0.586484
      19A     -0.584284    20A     -0.583762    21A     -0.541914
      22A     -0.539544    23A     -0.512483    24A     -0.509474
      25A     -0.506631

  @DF-RHF Final Energy:  -380.28053213368071

   => Energetics <=

    Nuclear Repulsion Energy =            169.9827283867874428
    One-Electron Energy =                -862.6257027557769561
    Two-Electron Energy =                 312.3624422353087766
    Total Energy =                       -380.2805321336807083
 Dipole X            :          5.7143511           -7.3698336           -1.6554826
 Dipole Y            :        143.2794940         -142.0863266            1.1931674
 Dipole Z            :         24.8935054          -23.0592413            1.8342641
 Magnitude           :                                                    2.7438651

    SAPT Results
  --------------------------------------------------------------------------------------------------------
    Electrostatics               -102.94785593 [mEh]     -64.60075490 [kcal/mol]    -270.28955850 [kJ/mol]
      Elst10,r                   -102.60617635 [mEh]     -64.38634772 [kcal/mol]    -269.39247888 [kJ/mol]
      Elst12,r                     -0.34167958 [mEh]      -0.21440718 [kcal/mol]      -0.89707962 [kJ/mol]

    Exchange                       85.53196953 [mEh]      53.67212119 [kcal/mol]     224.56415506 [kJ/mol]
      Exch10                       75.91481316 [mEh]      47.63726446 [kcal/mol]     199.31431449 [kJ/mol]
      Exch10(S^2)                  74.96237934 [mEh]      47.03960321 [kcal/mol]     196.81369985 [kJ/mol]
      Exch11(S^2)                   3.54400298 [mEh]       2.22389544 [kcal/mol]       9.30477853 [kJ/mol]
      Exch12(S^2)                   6.07315339 [mEh]       3.81096129 [kcal/mol]      15.94506203 [kJ/mol]

    Induction                     -34.72225098 [mEh]     -21.78854144 [kcal/mol]     -91.16325738 [kJ/mol]
      Ind20,r                     -63.68034439 [mEh]     -39.96001940 [kcal/mol]    -167.19272116 [kJ/mol]
      Ind22                        -9.35256024 [mEh]      -5.86882015 [kcal/mol]     -24.55514352 [kJ/mol]
      Exch-Ind20,r                 41.05194870 [mEh]      25.76048672 [kcal/mol]     107.78187646 [kJ/mol]
      Exch-Ind22                    6.02918886 [mEh]       3.78337313 [kcal/mol]      15.82963318 [kJ/mol]
      delta HF,r (2)               -8.77048391 [mEh]      -5.50356174 [kcal/mol]     -23.02690234 [kJ/mol]

    Dispersion                    -29.86244744 [mEh]     -18.73896868 [kcal/mol]     -78.40384494 [kJ/mol]
      Disp20                      -34.26390729 [mEh]     -21.50092643 [kcal/mol]     -89.95987620 [kJ/mol]
      Disp21                        2.56690110 [mEh]       1.61075476 [kcal/mol]       6.73939791 [kJ/mol]
      Disp22 (SDQ)                 -0.14160906 [mEh]      -0.08886102 [kcal/mol]      -0.37179453 [kJ/mol]
      Disp22 (T)                   -5.44138753 [mEh]      -3.41452222 [kcal/mol]     -14.28636099 [kJ/mol]
      Est. Disp22 (T)              -6.20771598 [mEh]      -3.89540059 [kcal/mol]     -16.29835607 [kJ/mol]
      Exch-Disp20                   8.18388379 [mEh]       5.13546461 [kcal/mol]      21.48678394 [kJ/mol]

  Total HF                        -58.09024279 [mEh]     -36.45217768 [kcal/mol]    -152.51591142 [kJ/mol]
  Total SAPT0                     -84.17026628 [mEh]     -52.81763950 [kcal/mol]    -220.98900368 [kJ/mol]
  Total SAPT2                     -78.21816088 [mEh]     -49.08263697 [kcal/mol]    -205.36175309 [kJ/mol]
  Total SAPT2+                    -82.00058482 [mEh]     -51.45614383 [kcal/mol]    -215.29250577 [kJ/mol]

  Special recipe for scaled SAPT0 (see Manual):
    Electrostatics sSAPT0        -102.60617635 [mEh]     -64.38634772 [kcal/mol]    -269.39247888 [kJ/mol]
    Exchange sSAPT0                75.91481316 [mEh]      47.63726446 [kcal/mol]     199.31431449 [kJ/mol]
    Induction sSAPT0              -29.81415895 [mEh]     -18.70866719 [kcal/mol]     -78.27706354 [kJ/mol]
    Dispersion sSAPT0             -25.76410257 [mEh]     -16.16721845 [kcal/mol]     -67.64364198 [kJ/mol]
  Total sSAPT0                    -82.26962471 [mEh]     -51.62496891 [kcal/mol]    -215.99886991 [kJ/mol]
  --------------------------------------------------------------------------------------------------------

*** Psi4 exiting successfully. Buy a developer a beer!
