                               Psi4 1.8.2 release

  ==> Input File <==

--------------------------------------------------------------------------
MEMORY 60 GB

molecule dimer {
-1 1
Br     0.000000     0.000000     0.000000
--
0 1
O     -1.555931    -2.410735     1.903242
H     -1.336158    -1.685951     1.329705
H     -1.202065    -2.143102     2.753233
O      1.417048     1.968120    -2.039520
H      1.167136     1.401234    -1.339808
H      2.306972     2.196646    -1.827799
O     -2.508795     2.074873    -1.101146
H     -3.092353     1.814461    -0.316996
H     -1.909740     1.348917    -1.007525
O      2.328483    -2.470186    -0.546566
H      1.861807    -3.293107    -0.316598
H      1.615156    -1.824846    -0.512308
O     -1.332291    -0.652158    -3.288020
H     -0.891184    -0.465234    -2.411088
H     -0.886797    -0.114013    -3.927637

units ang
no_reorient
no_com
symmetry c1
}

set {
basis        aug-cc-pVTZ
scf_type     df
}

energy("sapt2+")
--------------------------------------------------------------------------

  //              Dimer HF             //
    Molecular point group: c1
  Charge       = -1
  Multiplicity = 1
  Basis Set: AUG-CC-PVTZ
    Blend: AUG-CC-PVTZ
  Basis Set: (AUG-CC-PVTZ AUX)
    Blend: AUG-CC-PVTZ-JKFIT
  @DF-RHF Final Energy: -2952.88123403983445
    Total Energy =                      -2952.8812340398344531
 Dipole X            :         30.1943939          -29.4402587            0.7541352
 Dipole Y            :         28.1024583          -27.7519188            0.3505394
 Dipole Z            :         93.0629035          -90.9957950            2.0671085
 Magnitude           :                                                    2.2281237
  //            Monomer A HF           //
    Molecular point group: c1
  Multiplicity = 1
  Basis Set: AUG-CC-PVTZ
    Blend: AUG-CC-PVTZ
  Basis Set: (AUG-CC-PVTZ AUX)
    Blend: AUG-CC-PVTZ-JKFIT
  @DF-RHF Final Energy: -2572.53373115782324
    Total Energy =                      -2572.5337311578232402
  //            Monomer B HF           //
    Molecular point group: c1

    Geometry (in Angstrom), charge = 0, multiplicity = 1:

       Center              X                  Y                   Z               Mass
    ------------   -----------------  -----------------  -----------------  -----------------
      Gh(BR)          0.000000000000     0.000000000000     0.000000000000    78.918337600000
         O           -1.555931000000    -2.410735000000     1.903242000000    15.994914619570
         H           -1.336158000000    -1.685951000000     1.329705000000     1.007825032230
         H           -1.202065000000    -2.143102000000     2.753233000000     1.007825032230
         O            1.417048000000     1.968120000000    -2.039520000000    15.994914619570
         H            1.167136000000     1.401234000000    -1.339808000000     1.007825032230
         H            2.306972000000     2.196646000000    -1.827799000000     1.007825032230
         O           -2.508795000000     2.074873000000    -1.101146000000    15.994914619570
         H           -3.092353000000     1.814461000000    -0.316996000000     1.007825032230
         H           -1.909740000000     1.348917000000    -1.007525000000     1.007825032230
         O            2.328483000000    -2.470186000000    -0.546566000000    15.994914619570
         H            1.861807000000    -3.293107000000    -0.316598000000     1.007825032230
         H            1.615156000000    -1.824846000000    -0.512308000000     1.007825032230
         O           -1.332291000000    -0.652158000000    -3.288020000000    15.994914619570
         H           -0.891184000000    -0.465234000000    -2.411088000000     1.007825032230
         H           -0.886797000000    -0.114013000000    -3.927637000000     1.007825032230

  Charge       = 0
  Multiplicity = 1
  Basis Set: AUG-CC-PVTZ
    Blend: AUG-CC-PVTZ
  Basis Set: (AUG-CC-PVTZ AUX)
    Blend: AUG-CC-PVTZ-JKFIT

    Orbital Energies [Eh]
    ---------------------

    Doubly Occupied:

       1A    -20.588229     2A    -20.583349     3A    -20.581750
       4A    -20.581603     5A    -20.574344     6A     -1.381837
       7A     -1.376731     8A     -1.363049     9A     -1.357284
      10A     -1.349857    11A     -0.744056    12A     -0.738864
      13A     -0.719846    14A     -0.718598    15A     -0.695113
      16A     -0.608021    17A     -0.607473    18A     -0.604144
      19A     -0.601054    20A     -0.583159    21A     -0.531751
      22A     -0.529489    23A     -0.523082    24A     -0.519439
      25A     -0.511590

  @DF-RHF Final Energy:  -380.28587229619512

   => Energetics <=

    Nuclear Repulsion Energy =            156.9355380589632034
    One-Electron Energy =                -836.4953915135749867
    Two-Electron Energy =                 299.2739811584166887
    Total Energy =                       -380.2858722961951230
 Dipole X            :         30.0735202          -29.4402587            0.6332615
 Dipole Y            :         27.9345315          -27.7519188            0.1826127
 Dipole Z            :         92.5801789          -90.9957950            1.5843839
 Magnitude           :                                                    1.7159953

    SAPT Results
  --------------------------------------------------------------------------------------------------------
    Electrostatics                -97.96399917 [mEh]     -61.47333757 [kcal/mol]    -257.20444438 [kJ/mol]
      Elst10,r                    -98.26583531 [mEh]     -61.66274260 [kcal/mol]    -257.99691506 [kJ/mol]
      Elst12,r                      0.30183614 [mEh]       0.18940504 [kcal/mol]       0.79247067 [kJ/mol]

    Exchange                       72.69406222 [mEh]      45.61621273 [kcal/mol]     190.85823407 [kJ/mol]
      Exch10                       64.55867860 [mEh]      40.51118244 [kcal/mol]     169.49878732 [kJ/mol]
      Exch10(S^2)                  63.82463779 [mEh]      40.05056487 [kcal/mol]     167.57156343 [kJ/mol]
      Exch11(S^2)                   3.17105225 [mEh]       1.98986533 [kcal/mol]       8.32559654 [kJ/mol]
      Exch12(S^2)                   4.96433137 [mEh]       3.11516496 [kcal/mol]      13.03385021 [kJ/mol]

    Induction                     -30.72827181 [mEh]     -19.28228167 [kcal/mol]     -80.67706651 [kJ/mol]
      Ind20,r                     -53.95310003 [mEh]     -33.85608141 [kcal/mol]    -141.65384462 [kJ/mol]
      Ind22                        -7.30569257 [mEh]      -4.58439130 [kcal/mol]     -19.18109320 [kJ/mol]
      Exch-Ind20,r                 33.23912158 [mEh]      20.85786369 [kcal/mol]      87.26930167 [kJ/mol]
      Exch-Ind22                    4.50084987 [mEh]       2.82432594 [kcal/mol]      11.81697972 [kJ/mol]
      delta HF,r (2)               -7.20945065 [mEh]      -4.52399859 [kcal/mol]     -18.92841008 [kJ/mol]

    Dispersion                    -26.85334532 [mEh]     -16.85072859 [kcal/mol]     -70.50344843 [kJ/mol]
      Disp20                      -30.34059510 [mEh]     -19.03901086 [kcal/mol]     -79.65922146 [kJ/mol]
      Disp21                        2.02791318 [mEh]       1.27253473 [kcal/mol]       5.32428533 [kJ/mol]
      Disp22 (SDQ)                 -0.03322839 [mEh]      -0.02085113 [kcal/mol]      -0.08724112 [kJ/mol]
      Disp22 (T)                   -4.76454783 [mEh]      -2.98979890 [kcal/mol]     -12.50931862 [kJ/mol]
      Est. Disp22 (T)              -5.48129469 [mEh]      -3.43956434 [kcal/mol]     -14.39113722 [kJ/mol]
      Exch-Disp20                   6.97385967 [mEh]       4.37616301 [kcal/mol]      18.30986603 [kJ/mol]

  Total HF                        -61.63058582 [mEh]     -38.67377647 [kcal/mol]    -161.81108077 [kJ/mol]
  Total SAPT0                     -84.99732125 [mEh]     -53.33662433 [kcal/mol]    -223.16043619 [kJ/mol]
  Total SAPT2                     -79.36494418 [mEh]     -49.80225436 [kcal/mol]    -208.37263225 [kJ/mol]
  Total SAPT2+                    -82.85155408 [mEh]     -51.99013510 [kcal/mol]    -217.52672526 [kJ/mol]

  Special recipe for scaled SAPT0 (see Manual):
    Electrostatics sSAPT0         -98.26583531 [mEh]     -61.66274260 [kcal/mol]    -257.99691506 [kJ/mol]
    Exchange sSAPT0                64.55867860 [mEh]      40.51118244 [kcal/mol]     169.49878732 [kJ/mol]
    Induction sSAPT0              -26.76334936 [mEh]     -16.79425527 [kcal/mol]     -70.26716407 [kJ/mol]
    Dispersion sSAPT0             -23.12334051 [mEh]     -14.51011524 [kcal/mol]     -60.71032215 [kJ/mol]
  Total sSAPT0                    -83.59384658 [mEh]     -52.45593068 [kcal/mol]    -219.47561395 [kJ/mol]
  --------------------------------------------------------------------------------------------------------

*** Psi4 exiting successfully. Buy a developer a beer!
