                               Psi4 1.8.2 release

  ==> Input File <==

--------------------------------------------------------------------------
MEMORY 60 GB

molecule dimer {
-1 1
Br     0.000000     0.000000     0.000000
--
0 1
O     -0.398772     2.771226    -1.737852
H     -0.167454     1.894529    -1.346899
H     -0.309653     3.428697    -1.020919
O     -3.339806     0.323665     0.990808
H     -2.438001     0.132101     0.746811
H     -3.184475     1.038662     1.636400
O      1.126320     0.799653     2.994782
H      0.909928     0.462489     2.111776
H      1.413076     1.689178     2.896339
O      2.367838    -2.599542    -0.056597
H      3.092019    -3.163533    -0.291148
H      2.688477    -1.665096    -0.038083
O      2.789469     1.923029    -0.987849
H      2.065767     1.315362    -0.700213
H      3.541717     1.356749    -1.006051
O     -0.911427     2.834175     1.397650
H     -0.109751     3.206318     1.722669
H     -0.618486     2.164510     0.761354

units ang
no_reorient
no_com
symmetry c1
}

set {
basis        aug-cc-pVTZ
scf_type     df
}

energy("sapt2+")
--------------------------------------------------------------------------

  //              Dimer HF             //
    Molecular point group: c1
  Charge       = -1
  Multiplicity = 1
  Basis Set: AUG-CC-PVTZ
    Blend: AUG-CC-PVTZ
  Basis Set: (AUG-CC-PVTZ AUX)
    Blend: AUG-CC-PVTZ-JKFIT
  @DF-RHF Final Energy: -3028.93408928146346
    Total Energy =                      -3028.9340892814634572
 Dipole X            :        -35.5835236           37.7040802            2.1205566
 Dipole Y            :       -115.0100541          113.9081820           -1.1018721
 Dipole Z            :        -49.7868234           49.6611938           -0.1256296
 Magnitude           :                                                    2.3930452
  //            Monomer A HF           //
    Molecular point group: c1
  Multiplicity = 1
  Basis Set: AUG-CC-PVTZ
    Blend: AUG-CC-PVTZ
  Basis Set: (AUG-CC-PVTZ AUX)
    Blend: AUG-CC-PVTZ-JKFIT
  @DF-RHF Final Energy: -2572.53373814350743
    Total Energy =                      -2572.5337381435074349
  //            Monomer B HF           //
    Molecular point group: c1

    Geometry (in Angstrom), charge = 0, multiplicity = 1:

       Center              X                  Y                   Z               Mass
    ------------   -----------------  -----------------  -----------------  -----------------
      Gh(BR)          0.000000000000     0.000000000000     0.000000000000    78.918337600000
         O           -0.398772000000     2.771226000000    -1.737852000000    15.994914619570
         H           -0.167454000000     1.894529000000    -1.346899000000     1.007825032230
         H           -0.309653000000     3.428697000000    -1.020919000000     1.007825032230
         O           -3.339806000000     0.323665000000     0.990808000000    15.994914619570
         H           -2.438001000000     0.132101000000     0.746811000000     1.007825032230
         H           -3.184475000000     1.038662000000     1.636400000000     1.007825032230
         O            1.126320000000     0.799653000000     2.994782000000    15.994914619570
         H            0.909928000000     0.462489000000     2.111776000000     1.007825032230
         H            1.413076000000     1.689178000000     2.896339000000     1.007825032230
         O            2.367838000000    -2.599542000000    -0.056597000000    15.994914619570
         H            3.092019000000    -3.163533000000    -0.291148000000     1.007825032230
         H            2.688477000000    -1.665096000000    -0.038083000000     1.007825032230
         O            2.789469000000     1.923029000000    -0.987849000000    15.994914619570
         H            2.065767000000     1.315362000000    -0.700213000000     1.007825032230
         H            3.541717000000     1.356749000000    -1.006051000000     1.007825032230
         O           -0.911427000000     2.834175000000     1.397650000000    15.994914619570
         H           -0.109751000000     3.206318000000     1.722669000000     1.007825032230
         H           -0.618486000000     2.164510000000     0.761354000000     1.007825032230

  Charge       = 0
  Multiplicity = 1
  Basis Set: AUG-CC-PVTZ
    Blend: AUG-CC-PVTZ
  Basis Set: (AUG-CC-PVTZ AUX)
    Blend: AUG-CC-PVTZ-JKFIT

    Orbital Energies [Eh]
    ---------------------

    Doubly Occupied:

       1A    -20.603890     2A    -20.603429     3A    -20.591061
       4A    -20.590058     5A    -20.584625     6A    -20.566126
       7A     -1.394211     8A     -1.385500     9A     -1.378648
      10A     -1.368629    11A     -1.354544    12A     -1.349220
      13A     -0.758641    14A     -0.749587    15A     -0.746045
      16A     -0.743250    17A     -0.722532    18A     -0.699845
      19A     -0.627622    20A     -0.619541    21A     -0.603615
      22A     -0.597435    23A     -0.589999    24A     -0.588840
      25A     -0.550240    26A     -0.543817    27A     -0.531249
      28A     -0.530647    29A     -0.519834    30A     -0.506707

  @DF-RHF Final Energy:  -456.33788757461582

   => Energetics <=

    Nuclear Repulsion Energy =            233.1760440710503985
    One-Electron Energy =               -1093.0290894678494169
    Two-Electron Energy =                 403.5151578221831414
    Total Energy =                       -456.3378875746158201
 Dipole X            :        -35.3128856           37.7040802            2.3911946
 Dipole Y            :       -113.9434610          113.9081820           -0.0352790
 Dipole Z            :        -49.4786498           49.6611938            0.1825439
 Magnitude           :                                                    2.3984117

    SAPT Results
  --------------------------------------------------------------------------------------------------------
    Electrostatics               -103.79409077 [mEh]     -65.13177528 [kcal/mol]    -272.51134776 [kJ/mol]
      Elst10,r                   -102.79533536 [mEh]     -64.50504680 [kcal/mol]    -269.88911580 [kJ/mol]
      Elst12,r                     -0.99875541 [mEh]      -0.62672848 [kcal/mol]      -2.62223196 [kJ/mol]

    Exchange                       89.25325559 [mEh]      56.00726345 [kcal/mol]     234.33439028 [kJ/mol]
      Exch10                       79.41937275 [mEh]      49.83640880 [kcal/mol]     208.51553443 [kJ/mol]
      Exch10(S^2)                  78.28420178 [mEh]      49.12407826 [kcal/mol]     205.53514345 [kJ/mol]
      Exch11(S^2)                   3.62537134 [mEh]       2.27495486 [kcal/mol]       9.51841115 [kJ/mol]
      Exch12(S^2)                   6.20851150 [mEh]       3.89589978 [kcal/mol]      16.30044470 [kJ/mol]

    Induction                     -42.79593140 [mEh]     -26.85485239 [kcal/mol]    -112.36070241 [kJ/mol]
      Ind20,r                     -71.66011580 [mEh]     -44.96740156 [kcal/mol]    -188.14360811 [kJ/mol]
      Ind22                        -9.15936725 [mEh]      -5.74758972 [kcal/mol]     -24.04791540 [kJ/mol]
      Exch-Ind20,r                 42.64725959 [mEh]      26.76155943 [kcal/mol]     111.97036464 [kJ/mol]
      Exch-Ind22                    5.45103658 [mEh]       3.42057710 [kcal/mol]      14.31169458 [kJ/mol]
      delta HF,r (2)              -10.07474453 [mEh]      -6.32199764 [kcal/mol]     -26.45123812 [kJ/mol]

    Dispersion                    -32.31829097 [mEh]     -20.28003376 [kcal/mol]     -84.85166126 [kJ/mol]
      Disp20                      -36.74486908 [mEh]     -23.05775346 [kcal/mol]     -96.47364048 [kJ/mol]
      Disp21                        2.91087046 [mEh]       1.82659879 [kcal/mol]       7.64248933 [kJ/mol]
      Disp22 (SDQ)                 -0.13593071 [mEh]      -0.08529781 [kcal/mol]      -0.35688604 [kJ/mol]
      Disp22 (T)                   -5.88314267 [mEh]      -3.69172776 [kcal/mol]     -15.44618896 [kJ/mol]
      Est. Disp22 (T)              -6.71159001 [mEh]      -4.21158632 [kcal/mol]     -17.62127716 [kJ/mol]
      Exch-Disp20                   8.36322838 [mEh]       5.24800504 [kcal/mol]      21.95765308 [kJ/mol]

  Total HF                        -62.46356334 [mEh]     -39.19647776 [kcal/mol]    -163.99806296 [kJ/mol]
  Total SAPT0                     -90.84520404 [mEh]     -57.00622618 [kcal/mol]    -238.51405035 [kJ/mol]
  Total SAPT2                     -85.71840727 [mEh]     -53.78911264 [kcal/mol]    -225.05364729 [kJ/mol]
  Total SAPT2+                    -89.65505755 [mEh]     -56.25939798 [kcal/mol]    -235.38932116 [kJ/mol]

  Special recipe for scaled SAPT0 (see Manual):
    Electrostatics sSAPT0        -102.79533536 [mEh]     -64.50504680 [kcal/mol]    -269.88911580 [kJ/mol]
    Exchange sSAPT0                79.41937275 [mEh]      49.83640880 [kcal/mol]     208.51553443 [kJ/mol]
    Induction sSAPT0              -37.20533098 [mEh]     -23.34669767 [kcal/mol]     -97.68258304 [kJ/mol]
    Dispersion sSAPT0             -28.01252316 [mEh]     -17.57812366 [kcal/mol]     -73.54686941 [kJ/mol]
  Total sSAPT0                    -88.59381674 [mEh]     -55.59345933 [kcal/mol]    -232.60303382 [kJ/mol]
  --------------------------------------------------------------------------------------------------------

*** Psi4 exiting successfully. Buy a developer a beer!
