                               Psi4 1.8.2 release

  ==> Input File <==

--------------------------------------------------------------------------
MEMORY 60 GB

molecule dimer {
-1 1
Br     0.000000     0.000000     0.000000
--
0 1
O     -3.203691    -0.706166     0.782016
H     -2.295960    -0.464817     0.667408
H     -3.558639    -0.246998     1.530606
O     -1.688294    -2.239204    -1.689504
H     -1.640223    -2.974459    -1.039912
H     -1.367206    -1.475108    -1.153456
O      1.718343    -2.981602     0.227705
H      1.215621    -3.617408     0.840091
H      1.172353    -2.184568     0.147489
O     -1.023386     2.101542     2.512944
H     -0.754621     1.462034     1.797374
H     -0.259077     2.082588     3.154971

units ang
no_reorient
no_com
symmetry c1
}

set {
basis        aug-cc-pVTZ
scf_type     df
}

energy("sapt2+")
--------------------------------------------------------------------------

  //              Dimer HF             //
    Molecular point group: c1
  Charge       = -1
  Multiplicity = 1
  Basis Set: AUG-CC-PVTZ
    Blend: AUG-CC-PVTZ
  Basis Set: (AUG-CC-PVTZ AUX)
    Blend: AUG-CC-PVTZ-JKFIT
  @DF-RHF Final Energy: -2876.80753721487372
    Total Energy =                      -2876.8075372148741735
 Dipole X            :         78.6739915          -77.5996683            1.0743233
 Dipole Y            :         72.5061925          -71.8514993            0.6546931
 Dipole Z            :        -37.8291323           38.9469890            1.1178567
 Magnitude           :                                                    1.6829727
  //            Monomer A HF           //
    Molecular point group: c1
  Multiplicity = 1
  Basis Set: AUG-CC-PVTZ
    Blend: AUG-CC-PVTZ
  Basis Set: (AUG-CC-PVTZ AUX)
    Blend: AUG-CC-PVTZ-JKFIT
  @DF-RHF Final Energy: -2572.53372171485216
    Total Energy =                      -2572.5337217148517084
  //            Monomer B HF           //
    Molecular point group: c1

    Geometry (in Angstrom), charge = 0, multiplicity = 1:

       Center              X                  Y                   Z               Mass
    ------------   -----------------  -----------------  -----------------  -----------------
      Gh(BR)          0.000000000000     0.000000000000     0.000000000000    78.918337600000
         O           -3.203691000000    -0.706166000000     0.782016000000    15.994914619570
         H           -2.295960000000    -0.464817000000     0.667408000000     1.007825032230
         H           -3.558639000000    -0.246998000000     1.530606000000     1.007825032230
         O           -1.688294000000    -2.239204000000    -1.689504000000    15.994914619570
         H           -1.640223000000    -2.974459000000    -1.039912000000     1.007825032230
         H           -1.367206000000    -1.475108000000    -1.153456000000     1.007825032230
         O            1.718343000000    -2.981602000000     0.227705000000    15.994914619570
         H            1.215621000000    -3.617408000000     0.840091000000     1.007825032230
         H            1.172353000000    -2.184568000000     0.147489000000     1.007825032230
         O           -1.023386000000     2.101542000000     2.512944000000    15.994914619570
         H           -0.754621000000     1.462034000000     1.797374000000     1.007825032230
         H           -0.259077000000     2.082588000000     3.154971000000     1.007825032230

  Charge       = 0
  Multiplicity = 1
  Basis Set: AUG-CC-PVTZ
    Blend: AUG-CC-PVTZ
  Basis Set: (AUG-CC-PVTZ AUX)
    Blend: AUG-CC-PVTZ-JKFIT

    Orbital Energies [Eh]
    ---------------------

    Doubly Occupied:

       1A    -20.595209     2A    -20.586215     3A    -20.578135
       4A    -20.576651     5A     -1.370918     6A     -1.354846
       7A     -1.349064     8A     -1.345050     9A     -0.749891
      10A     -0.716644    11A     -0.716559    12A     -0.701105
      13A     -0.598463    14A     -0.592429    15A     -0.589370
      16A     -0.585082    17A     -0.527973    18A     -0.524477
      19A     -0.521036    20A     -0.510785

  @DF-RHF Final Energy:  -304.22042325325128

   => Energetics <=

    Nuclear Repulsion Energy =            107.2718388496413411
    One-Electron Energy =                -632.8047126411208865
    Two-Electron Energy =                 221.3124505382282905
    Total Energy =                       -304.2204232532512833
 Dipole X            :         78.1176896          -77.5996683            0.5180214
 Dipole Y            :         72.0282636          -71.8514993            0.1767643
 Dipole Z            :        -37.4452316           38.9469890            1.5017574
 Magnitude           :                                                    1.5983951

    SAPT Results
  --------------------------------------------------------------------------------------------------------
    Electrostatics                -83.43228051 [mEh]     -52.35454644 [kcal/mol]    -219.05142229 [kJ/mol]
      Elst10,r                    -83.29306925 [mEh]     -52.26719005 [kcal/mol]    -218.68592317 [kJ/mol]
      Elst12,r                     -0.13921126 [mEh]      -0.08735639 [kcal/mol]      -0.36549912 [kJ/mol]

    Exchange                       66.38395342 [mEh]      41.65655968 [kcal/mol]     174.29104568 [kJ/mol]
      Exch10                       59.04136758 [mEh]      37.04901750 [kcal/mol]     155.01308921 [kJ/mol]
      Exch10(S^2)                  58.27263476 [mEh]      36.56663037 [kcal/mol]     152.99478148 [kJ/mol]
      Exch11(S^2)                   2.86121342 [mEh]       1.79543853 [kcal/mol]       7.51211481 [kJ/mol]
      Exch12(S^2)                   4.48137242 [mEh]       2.81210365 [kcal/mol]      11.76584166 [kJ/mol]

    Induction                     -31.76584704 [mEh]     -19.93336996 [kcal/mol]     -83.40121992 [kJ/mol]
      Ind20,r                     -52.00716245 [mEh]     -32.63498714 [kcal/mol]    -136.54478621 [kJ/mol]
      Ind22                        -6.62785676 [mEh]      -4.15904291 [kcal/mol]     -17.40143552 [kJ/mol]
      Exch-Ind20,r                 31.40706357 [mEh]      19.70822993 [kcal/mol]      82.45923403 [kJ/mol]
      Exch-Ind22                    4.00255481 [mEh]       2.51164107 [kcal/mol]      10.50870622 [kJ/mol]
      delta HF,r (2)               -8.54044621 [mEh]      -5.35921091 [kcal/mol]     -22.42293845 [kJ/mol]

    Dispersion                    -23.40163873 [mEh]     -14.68475000 [kcal/mol]     -61.44099401 [kJ/mol]
      Disp20                      -26.60021191 [mEh]     -16.69188498 [kcal/mol]     -69.83884674 [kJ/mol]
      Disp21                        1.85161133 [mEh]       1.16190365 [kcal/mol]       4.86140488 [kJ/mol]
      Disp22 (SDQ)                  0.00266055 [mEh]       0.00166952 [kcal/mol]       0.00698527 [kJ/mol]
      Disp22 (T)                   -4.20930952 [mEh]      -2.64138160 [kcal/mol]     -11.05154063 [kJ/mol]
      Est. Disp22 (T)              -4.82497555 [mEh]      -3.02771787 [kcal/mol]     -12.66797155 [kJ/mol]
      Exch-Disp20                   6.16927684 [mEh]       3.87127967 [kcal/mol]      16.19743412 [kJ/mol]

  Total HF                        -53.39224677 [mEh]     -33.50414067 [kcal/mol]    -140.18132458 [kJ/mol]
  Total SAPT0                     -73.82318183 [mEh]     -46.32474599 [kcal/mol]    -193.82273720 [kJ/mol]
  Total SAPT2                     -69.24510920 [mEh]     -43.45196203 [kcal/mol]    -181.80300915 [kJ/mol]
  Total SAPT2+                    -72.21581286 [mEh]     -45.31610673 [kcal/mol]    -189.60259054 [kJ/mol]

  Special recipe for scaled SAPT0 (see Manual):
    Electrostatics sSAPT0         -83.29306925 [mEh]     -52.26719005 [kcal/mol]    -218.68592317 [kJ/mol]
    Exchange sSAPT0                59.04136758 [mEh]      37.04901750 [kcal/mol]     155.01308921 [kJ/mol]
    Induction sSAPT0              -27.88110948 [mEh]     -17.49566034 [kcal/mol]     -73.20184286 [kJ/mol]
    Dispersion sSAPT0             -20.18354463 [mEh]     -12.66536547 [kcal/mol]     -52.99188913 [kJ/mol]
  Total sSAPT0                    -72.31635578 [mEh]     -45.37919836 [kcal/mol]    -189.86656595 [kJ/mol]
  --------------------------------------------------------------------------------------------------------

*** Psi4 exiting successfully. Buy a developer a beer!
