                               Psi4 1.8.2 release

  ==> Input File <==

--------------------------------------------------------------------------
MEMORY 60 GB

molecule dimer {
-1 1
Br     0.000000     0.000000     0.000000
--
0 1
O     -0.389734    -0.598419    -3.176388
H     -0.465508     0.292966    -3.519841
H      0.113003    -0.512129    -2.347686
O      1.397414     3.038515     0.513452
H      0.940691     3.150955     1.319867
H      1.055355     2.289705     0.200989
O      1.276458    -2.240841     2.084055
H      2.053789    -2.628877     1.781351
H      0.942450    -1.517205     1.560668
O      2.870105    -1.015920    -1.248286
H      3.514743    -0.967933    -0.518971
H      2.050698    -0.852438    -0.717526
O     -1.016719     3.064452    -1.085676
H     -1.384642     2.386952    -1.618609
H     -0.007287     3.049352    -1.229396

units ang
no_reorient
no_com
symmetry c1
}

set {
basis        aug-cc-pVTZ
scf_type     df
}

energy("sapt2+")
--------------------------------------------------------------------------

  //              Dimer HF             //
    Molecular point group: c1
  Charge       = -1
  Multiplicity = 1
  Basis Set: AUG-CC-PVTZ
    Blend: AUG-CC-PVTZ
  Basis Set: (AUG-CC-PVTZ AUX)
    Blend: AUG-CC-PVTZ-JKFIT
  @DF-RHF Final Energy: -2952.86012614891661
    Total Energy =                      -2952.8601261489166063
 Dipole X            :        -79.5138303           79.2050057           -0.3088246
 Dipole Y            :        -42.6837804           42.8469774            0.1631970
 Dipole Z            :         54.3690841          -53.6529114            0.7161727
 Magnitude           :                                                    0.7968119
  //            Monomer A HF           //
    Molecular point group: c1
  Multiplicity = 1
  Basis Set: AUG-CC-PVTZ
    Blend: AUG-CC-PVTZ
  Basis Set: (AUG-CC-PVTZ AUX)
    Blend: AUG-CC-PVTZ-JKFIT
  @DF-RHF Final Energy: -2572.53372947485514
    Total Energy =                      -2572.5337294748555905
  //            Monomer B HF           //
    Molecular point group: c1

    Geometry (in Angstrom), charge = 0, multiplicity = 1:

       Center              X                  Y                   Z               Mass
    ------------   -----------------  -----------------  -----------------  -----------------
      Gh(BR)          0.000000000000     0.000000000000     0.000000000000    78.918337600000
         O           -0.389734000000    -0.598419000000    -3.176388000000    15.994914619570
         H           -0.465508000000     0.292966000000    -3.519841000000     1.007825032230
         H            0.113003000000    -0.512129000000    -2.347686000000     1.007825032230
         O            1.397414000000     3.038515000000     0.513452000000    15.994914619570
         H            0.940691000000     3.150955000000     1.319867000000     1.007825032230
         H            1.055355000000     2.289705000000     0.200989000000     1.007825032230
         O            1.276458000000    -2.240841000000     2.084055000000    15.994914619570
         H            2.053789000000    -2.628877000000     1.781351000000     1.007825032230
         H            0.942450000000    -1.517205000000     1.560668000000     1.007825032230
         O            2.870105000000    -1.015920000000    -1.248286000000    15.994914619570
         H            3.514743000000    -0.967933000000    -0.518971000000     1.007825032230
         H            2.050698000000    -0.852438000000    -0.717526000000     1.007825032230
         O           -1.016719000000     3.064452000000    -1.085676000000    15.994914619570
         H           -1.384642000000     2.386952000000    -1.618609000000     1.007825032230
         H           -0.007287000000     3.049352000000    -1.229396000000     1.007825032230

  Charge       = 0
  Multiplicity = 1
  Basis Set: AUG-CC-PVTZ
    Blend: AUG-CC-PVTZ
  Basis Set: (AUG-CC-PVTZ AUX)
    Blend: AUG-CC-PVTZ-JKFIT

    Orbital Energies [Eh]
    ---------------------

    Doubly Occupied:

       1A    -20.601553     2A    -20.582884     3A    -20.580828
       4A    -20.579410     5A    -20.577754     6A     -1.405928
       7A     -1.377770     8A     -1.372815     9A     -1.363141
      10A     -1.355583    11A     -0.771352    12A     -0.767379
      13A     -0.730472    14A     -0.723910    15A     -0.718045
      16A     -0.619828    17A     -0.619468    18A     -0.596077
      19A     -0.587178    20A     -0.586564    21A     -0.540068
      22A     -0.536822    23A     -0.529221    24A     -0.523331
      25A     -0.516364

  @DF-RHF Final Energy:  -380.27743602907861

   => Energetics <=

    Nuclear Repulsion Energy =            164.5049704506895978
    One-Electron Energy =                -851.2373145613242968
    Two-Electron Energy =                 306.4549080815560842
    Total Energy =                       -380.2774360290786149
 Dipole X            :        -78.7795669           79.2050057            0.4254388
 Dipole Y            :        -42.7326581           42.8469774            0.1143193
 Dipole Z            :         54.1141876          -53.6529114            0.4612762
 Magnitude           :                                                    0.6378423

    SAPT Results
  --------------------------------------------------------------------------------------------------------
    Electrostatics                -91.86399632 [mEh]     -57.64552799 [kcal/mol]    -241.18888912 [kJ/mol]
      Elst10,r                    -91.14526237 [mEh]     -57.19451563 [kcal/mol]    -239.30185339 [kJ/mol]
      Elst12,r                     -0.71873395 [mEh]      -0.45101236 [kcal/mol]      -1.88703573 [kJ/mol]

    Exchange                       81.62655067 [mEh]      51.22143386 [kcal/mol]     214.31047926 [kJ/mol]
      Exch10                       72.66524095 [mEh]      45.59812711 [kcal/mol]     190.78256382 [kJ/mol]
      Exch10(S^2)                  71.81975630 [mEh]      45.06757748 [kcal/mol]     188.56274419 [kJ/mol]
      Exch11(S^2)                   3.00732399 [mEh]       1.88712429 [kcal/mol]       7.89572805 [kJ/mol]
      Exch12(S^2)                   5.95398573 [mEh]       3.73618245 [kcal/mol]      15.63218739 [kJ/mol]

    Induction                     -33.59444506 [mEh]     -21.08083254 [kcal/mol]     -88.20220334 [kJ/mol]
      Ind20,r                     -63.97931593 [mEh]     -40.14762687 [kcal/mol]    -167.97767084 [kJ/mol]
      Ind22                        -8.99775496 [mEh]      -5.64617648 [kcal/mol]     -23.62360240 [kJ/mol]
      Exch-Ind20,r                 41.83821849 [mEh]      26.25387847 [kcal/mol]     109.84622751 [kJ/mol]
      Exch-Ind22                    5.88393346 [mEh]       3.69222399 [kcal/mol]      15.44826518 [kJ/mol]
      delta HF,r (2)               -8.33952611 [mEh]      -5.23313164 [kcal/mol]     -21.89542280 [kJ/mol]

    Dispersion                    -28.34993863 [mEh]     -17.78985507 [kcal/mol]     -74.43275361 [kJ/mol]
      Disp20                      -32.52920157 [mEh]     -20.41238216 [kcal/mol]     -85.40540696 [kJ/mol]
      Disp21                        2.37040579 [mEh]       1.48745209 [kcal/mol]       6.22349955 [kJ/mol]
      Disp22 (SDQ)                 -0.13626093 [mEh]      -0.08550502 [kcal/mol]      -0.35775302 [kJ/mol]
      Disp22 (T)                   -5.10638952 [mEh]      -3.20430780 [kcal/mol]     -13.40682384 [kJ/mol]
      Est. Disp22 (T)              -5.87176811 [mEh]      -3.68459012 [kcal/mol]     -15.41632504 [kJ/mol]
      Exch-Disp20                   7.81688619 [mEh]       4.90517014 [kcal/mol]      20.52323186 [kJ/mol]

  Total HF                        -48.96064498 [mEh]     -30.72326857 [kcal/mol]    -128.54615569 [kJ/mol]
  Total SAPT0                     -73.67296037 [mEh]     -46.23048059 [kcal/mol]    -193.42833080 [kJ/mol]
  Total SAPT2                     -68.54420610 [mEh]     -43.01213870 [kcal/mol]    -179.96278831 [kJ/mol]
  Total SAPT2+                    -72.18182934 [mEh]     -45.29478174 [kcal/mol]    -189.51336682 [kJ/mol]

  Special recipe for scaled SAPT0 (see Manual):
    Electrostatics sSAPT0         -91.14526237 [mEh]     -57.19451563 [kcal/mol]    -239.30185339 [kJ/mol]
    Exchange sSAPT0                72.66524095 [mEh]      45.59812711 [kcal/mol]     190.78256382 [kJ/mol]
    Induction sSAPT0              -28.98556276 [mEh]     -18.18871523 [kcal/mol]     -76.10158453 [kJ/mol]
    Dispersion sSAPT0             -24.43298418 [mEh]     -15.33192904 [kcal/mol]     -64.14879112 [kJ/mol]
  Total sSAPT0                    -71.89856836 [mEh]     -45.11703280 [kcal/mol]    -188.76966522 [kJ/mol]
  --------------------------------------------------------------------------------------------------------

*** Psi4 exiting successfully. Buy a developer a beer!
