                               Psi4 1.8.2 release

  ==> Input File <==

--------------------------------------------------------------------------
MEMORY 60 GB

molecule dimer {
-1 1
Br     0.000000     0.000000     0.000000
--
0 1
O      1.500307     0.811394    -3.090514
H      1.680740     0.622734    -2.201421
H      1.748017     1.689370    -3.324807
O      0.724522    -0.831400     3.164447
H      0.313632    -0.838633     2.273180
H      1.443347    -0.198288     3.178378
O     -0.538708    -3.161155    -1.222705
H     -0.911093    -2.966491    -2.155417
H     -0.428745    -2.313873    -0.869458
O     -2.786344     0.234985    -1.999484
H     -2.318369     0.483461    -1.218225
H     -2.131614     0.066966    -2.657688

units ang
no_reorient
no_com
symmetry c1
}

set {
basis        aug-cc-pVTZ
scf_type     df
}

energy("sapt2+")
--------------------------------------------------------------------------

  //              Dimer HF             //
    Molecular point group: c1
  Charge       = -1
  Multiplicity = 1
  Basis Set: AUG-CC-PVTZ
    Blend: AUG-CC-PVTZ
  Basis Set: (AUG-CC-PVTZ AUX)
    Blend: AUG-CC-PVTZ-JKFIT
  @DF-RHF Final Energy: -2876.81228896312632
    Total Energy =                      -2876.8122889631263206
 Dipole X            :         18.9242554          -17.7745164            1.1497390
 Dipole Y            :         52.9725827          -51.0682650            1.9043178
 Dipole Z            :         60.4835445          -60.7764381           -0.2928936
 Magnitude           :                                                    2.2436828
  //            Monomer A HF           //
    Molecular point group: c1
  Multiplicity = 1
  Basis Set: AUG-CC-PVTZ
    Blend: AUG-CC-PVTZ
  Basis Set: (AUG-CC-PVTZ AUX)
    Blend: AUG-CC-PVTZ-JKFIT
  @DF-RHF Final Energy: -2572.53371427073262
    Total Energy =                      -2572.5337142707326166
  //            Monomer B HF           //
    Molecular point group: c1

    Geometry (in Angstrom), charge = 0, multiplicity = 1:

       Center              X                  Y                   Z               Mass
    ------------   -----------------  -----------------  -----------------  -----------------
      Gh(BR)          0.000000000000     0.000000000000     0.000000000000    78.918337600000
         O            1.500307000000     0.811394000000    -3.090514000000    15.994914619570
         H            1.680740000000     0.622734000000    -2.201421000000     1.007825032230
         H            1.748017000000     1.689370000000    -3.324807000000     1.007825032230
         O            0.724522000000    -0.831400000000     3.164447000000    15.994914619570
         H            0.313632000000    -0.838633000000     2.273180000000     1.007825032230
         H            1.443347000000    -0.198288000000     3.178378000000     1.007825032230
         O           -0.538708000000    -3.161155000000    -1.222705000000    15.994914619570
         H           -0.911093000000    -2.966491000000    -2.155417000000     1.007825032230
         H           -0.428745000000    -2.313873000000    -0.869458000000     1.007825032230
         O           -2.786344000000     0.234985000000    -1.999484000000    15.994914619570
         H           -2.318369000000     0.483461000000    -1.218225000000     1.007825032230
         H           -2.131614000000     0.066966000000    -2.657688000000     1.007825032230

  Charge       = 0
  Multiplicity = 1
  Basis Set: AUG-CC-PVTZ
    Blend: AUG-CC-PVTZ
  Basis Set: (AUG-CC-PVTZ AUX)
    Blend: AUG-CC-PVTZ-JKFIT

    Orbital Energies [Eh]
    ---------------------

    Doubly Occupied:

       1A    -20.580200     2A    -20.575648     3A    -20.574620
       4A    -20.572990     5A     -1.380896     6A     -1.368457
       7A     -1.353124     8A     -1.352381     9A     -0.766017
      10A     -0.737727    11A     -0.728381    12A     -0.710430
      13A     -0.595405    14A     -0.592916    15A     -0.588264
      16A     -0.580961    17A     -0.530909    18A     -0.520166
      19A     -0.515985    20A     -0.513466

  @DF-RHF Final Energy:  -304.23312956172890

   => Energetics <=

    Nuclear Repulsion Energy =            100.4623896436838493
    One-Electron Energy =                -619.1131444545678733
    Two-Electron Energy =                 214.4176252491551224
    Total Energy =                       -304.2331295617289015
 Dipole X            :         18.8754169          -17.7745164            1.1009005
 Dipole Y            :         52.7057627          -51.0682650            1.6374978
 Dipole Z            :         60.3350656          -60.7764381           -0.4413726
 Magnitude           :                                                    2.0219275

    SAPT Results
  --------------------------------------------------------------------------------------------------------
    Electrostatics                -70.27964028 [mEh]     -44.10114009 [kcal/mol]    -184.51917015 [kJ/mol]
      Elst10,r                    -70.41361125 [mEh]     -44.18520814 [kcal/mol]    -184.87091087 [kJ/mol]
      Elst12,r                      0.13397097 [mEh]       0.08406805 [kcal/mol]       0.35174072 [kJ/mol]

    Exchange                       48.45553563 [mEh]      30.40630766 [kcal/mol]     127.21999126 [kJ/mol]
      Exch10                       42.81508667 [mEh]      26.86687251 [kcal/mol]     112.41099458 [kJ/mol]
      Exch10(S^2)                  42.49479132 [mEh]      26.66588414 [kcal/mol]     111.57005923 [kJ/mol]
      Exch11(S^2)                   1.92109884 [mEh]       1.20550772 [kcal/mol]       5.04384431 [kJ/mol]
      Exch12(S^2)                   3.71935011 [mEh]       2.33392743 [kcal/mol]       9.76515238 [kJ/mol]

    Induction                     -19.72948853 [mEh]     -12.38044097 [kcal/mol]     -51.79976500 [kJ/mol]
      Ind20,r                     -37.77626567 [mEh]     -23.70496459 [kcal/mol]     -99.18157186 [kJ/mol]
      Ind22                        -5.35433170 [mEh]      -3.35989387 [kcal/mol]     -14.05779594 [kJ/mol]
      Exch-Ind20,r                 24.49201819 [mEh]      15.36897345 [kcal/mol]      64.30378491 [kJ/mol]
      Exch-Ind22                    3.47144926 [mEh]       2.17836730 [kcal/mol]       9.11428877 [kJ/mol]
      delta HF,r (2)               -4.56235861 [mEh]      -2.86292325 [kcal/mol]     -11.97847088 [kJ/mol]

    Dispersion                    -18.95429652 [mEh]     -11.89400063 [kcal/mol]     -49.76449865 [kJ/mol]
      Disp20                      -21.17579316 [mEh]     -13.28801082 [kcal/mol]     -55.59703728 [kJ/mol]
      Disp21                        1.25007651 [mEh]       0.78443485 [kcal/mol]       3.28207543 [kJ/mol]
      Disp22 (SDQ)                 -0.08292155 [mEh]      -0.05203406 [kcal/mol]      -0.21771049 [kJ/mol]
      Disp22 (T)                   -3.31353581 [mEh]      -2.07927511 [kcal/mol]      -8.69968706 [kJ/mol]
      Est. Disp22 (T)              -3.85332235 [mEh]      -2.41799628 [kcal/mol]     -10.11689643 [kJ/mol]
      Exch-Disp20                   4.90766403 [mEh]       3.07960567 [kcal/mol]      12.88507013 [kJ/mol]

  Total HF                        -45.44513066 [mEh]     -28.51725003 [kcal/mol]    -119.31617412 [kJ/mol]
  Total SAPT0                     -61.71325980 [mEh]     -38.72565518 [kcal/mol]    -162.02814128 [kJ/mol]
  Total SAPT2                     -57.82172232 [mEh]     -36.28367855 [kcal/mol]    -151.81091105 [kJ/mol]
  Total SAPT2+                    -60.50788971 [mEh]     -37.96927403 [kcal/mol]    -158.86344254 [kJ/mol]

  Special recipe for scaled SAPT0 (see Manual):
    Electrostatics sSAPT0         -70.41361125 [mEh]     -44.18520814 [kcal/mol]    -184.87091087 [kJ/mol]
    Exchange sSAPT0                42.81508667 [mEh]      26.86687251 [kcal/mol]     112.41099458 [kJ/mol]
    Induction sSAPT0              -17.28861140 [mEh]     -10.84876744 [kcal/mol]     -45.39124299 [kJ/mol]
    Dispersion sSAPT0             -16.15631922 [mEh]     -10.13824337 [kcal/mol]     -42.41841027 [kJ/mol]
  Total sSAPT0                    -61.04345520 [mEh]     -38.30534645 [kcal/mol]    -160.26956955 [kJ/mol]
  --------------------------------------------------------------------------------------------------------

*** Psi4 exiting successfully. Buy a developer a beer!
