                               Psi4 1.8.2 release

  ==> Input File <==

--------------------------------------------------------------------------
MEMORY 60 GB

molecule dimer {
-1 1
Br     0.000000     0.000000     0.000000
--
0 1
O      0.907598    -3.034016    -0.451314
H      0.892890    -2.061947    -0.424380
H      1.171918    -3.349880     0.408425
O      2.003620    -0.060569     2.713891
H      1.339719     0.557371     2.425223
H      2.579032     0.542567     3.258704
O      1.853817     0.385000    -2.659522
H      2.431046    -0.410080    -2.411062
H      1.417523     0.543139    -1.862559
O      0.164337     3.154937    -0.854991
H      0.250547     2.315141    -0.320131
H      1.066341     3.225957    -1.078370

units ang
no_reorient
no_com
symmetry c1
}

set {
basis        aug-cc-pVTZ
scf_type     df
}

energy("sapt2+")
--------------------------------------------------------------------------

  //              Dimer HF             //
    Molecular point group: c1
  Charge       = -1
  Multiplicity = 1
  Basis Set: AUG-CC-PVTZ
    Blend: AUG-CC-PVTZ
  Basis Set: (AUG-CC-PVTZ AUX)
    Blend: AUG-CC-PVTZ-JKFIT
  @DF-RHF Final Energy: -2876.79429957332513
    Total Energy =                      -2876.7942995733255884
 Dipole X            :        -95.3844661           95.5898912            0.2054251
 Dipole Y            :         -9.1579256            9.3070599            0.1491343
 Dipole Z            :         20.7197397          -18.9343717            1.7853680
 Magnitude           :                                                    1.8033245
  //            Monomer A HF           //
    Molecular point group: c1
  Multiplicity = 1
  Basis Set: AUG-CC-PVTZ
    Blend: AUG-CC-PVTZ
  Basis Set: (AUG-CC-PVTZ AUX)
    Blend: AUG-CC-PVTZ-JKFIT
  @DF-RHF Final Energy: -2572.53371949475149
    Total Energy =                      -2572.5337194947514945
  //            Monomer B HF           //
    Molecular point group: c1

    Geometry (in Angstrom), charge = 0, multiplicity = 1:

       Center              X                  Y                   Z               Mass
    ------------   -----------------  -----------------  -----------------  -----------------
      Gh(BR)          0.000000000000     0.000000000000     0.000000000000    78.918337600000
         O            0.907598000000    -3.034016000000    -0.451314000000    15.994914619570
         H            0.892890000000    -2.061947000000    -0.424380000000     1.007825032230
         H            1.171918000000    -3.349880000000     0.408425000000     1.007825032230
         O            2.003620000000    -0.060569000000     2.713891000000    15.994914619570
         H            1.339719000000     0.557371000000     2.425223000000     1.007825032230
         H            2.579032000000     0.542567000000     3.258704000000     1.007825032230
         O            1.853817000000     0.385000000000    -2.659522000000    15.994914619570
         H            2.431046000000    -0.410080000000    -2.411062000000     1.007825032230
         H            1.417523000000     0.543139000000    -1.862559000000     1.007825032230
         O            0.164337000000     3.154937000000    -0.854991000000    15.994914619570
         H            0.250547000000     2.315141000000    -0.320131000000     1.007825032230
         H            1.066341000000     3.225957000000    -1.078370000000     1.007825032230

  Charge       = 0
  Multiplicity = 1
  Basis Set: AUG-CC-PVTZ
    Blend: AUG-CC-PVTZ
  Basis Set: (AUG-CC-PVTZ AUX)
    Blend: AUG-CC-PVTZ-JKFIT

    Orbital Energies [Eh]
    ---------------------

    Doubly Occupied:

       1A    -20.595020     2A    -20.585016     3A    -20.580632
       4A    -20.571961     5A     -1.372060     6A     -1.369463
       7A     -1.363220     8A     -1.353561     9A     -0.727071
      10A     -0.723890    11A     -0.716881    12A     -0.709863
      13A     -0.613883    14A     -0.611342    15A     -0.598573
      16A     -0.581946    17A     -0.533720    18A     -0.524959
      19A     -0.520731    20A     -0.514215

  @DF-RHF Final Energy:  -304.22596243669238

   => Energetics <=

    Nuclear Repulsion Energy =            105.2751140385038156
    One-Electron Energy =                -628.6661340716334507
    Two-Electron Energy =                 219.1650575964372649
    Total Energy =                       -304.2259624366923845
 Dipole X            :        -94.7436690           95.5898912            0.8462222
 Dipole Y            :         -8.9657100            9.3070599            0.3413499
 Dipole Z            :         20.5642916          -18.9343717            1.6299199
 Magnitude           :                                                    1.8679536

    SAPT Results
  --------------------------------------------------------------------------------------------------------
    Electrostatics                -75.88318728 [mEh]     -47.61741892 [kcal/mol]    -199.23128076 [kJ/mol]
      Elst10,r                    -74.45017612 [mEh]     -46.71819084 [kcal/mol]    -195.46891048 [kJ/mol]
      Elst12,r                     -1.43301116 [mEh]      -0.89922808 [kcal/mol]      -3.76237028 [kJ/mol]

    Exchange                       75.13328927 [mEh]      47.14685081 [kcal/mol]     197.26242379 [kJ/mol]
      Exch10                       67.46304351 [mEh]      42.33369893 [kcal/mol]     177.12419632 [kJ/mol]
      Exch10(S^2)                  66.51447596 [mEh]      41.73846381 [kcal/mol]     174.63373257 [kJ/mol]
      Exch11(S^2)                   2.64544297 [mEh]       1.66004053 [kcal/mol]       6.94560956 [kJ/mol]
      Exch12(S^2)                   5.02480279 [mEh]       3.15311135 [kcal/mol]      13.19261791 [kJ/mol]

    Induction                     -30.20855642 [mEh]     -18.95615535 [kcal/mol]     -79.31255397 [kJ/mol]
      Ind20,r                     -58.09310368 [mEh]     -36.45397292 [kcal/mol]    -152.52342269 [kJ/mol]
      Ind22                        -7.57474007 [mEh]      -4.75322116 [kcal/mol]     -19.88747732 [kJ/mol]
      Exch-Ind20,r                 38.32123567 [mEh]      24.04693843 [kcal/mol]     100.61239038 [kJ/mol]
      Exch-Ind22                    4.99669291 [mEh]       3.13547214 [kcal/mol]      13.11881543 [kJ/mol]
      delta HF,r (2)               -7.85864125 [mEh]      -4.93137184 [kcal/mol]     -20.63285977 [kJ/mol]

    Dispersion                    -24.69307489 [mEh]     -15.49513843 [kcal/mol]     -64.83165919 [kJ/mol]
      Disp20                      -28.64735924 [mEh]     -17.97648932 [kcal/mol]     -75.21363133 [kJ/mol]
      Disp21                        2.07812476 [mEh]       1.30404297 [kcal/mol]       5.45611581 [kJ/mol]
      Disp22 (SDQ)                 -0.00708822 [mEh]      -0.00444792 [kcal/mol]      -0.01861011 [kJ/mol]
      Disp22 (T)                   -4.44406361 [mEh]      -2.78869201 [kcal/mol]     -11.66788739 [kJ/mol]
      Est. Disp22 (T)              -5.08592135 [mEh]      -3.19146383 [kcal/mol]     -13.35308466 [kJ/mol]
      Exch-Disp20                   6.96916916 [mEh]       4.37321967 [kcal/mol]      18.29755110 [kJ/mol]

  Total HF                        -34.61764188 [mEh]     -21.72289824 [kcal/mol]     -90.88860624 [kJ/mol]
  Total SAPT0                     -56.29583197 [mEh]     -35.32616789 [kcal/mol]    -147.80468647 [kJ/mol]
  Total SAPT2                     -52.63664452 [mEh]     -33.02999311 [kcal/mol]    -138.19749116 [kJ/mol]
  Total SAPT2+                    -55.65152933 [mEh]     -34.92186188 [kcal/mol]    -146.11307012 [kJ/mol]

  Special recipe for scaled SAPT0 (see Manual):
    Electrostatics sSAPT0         -74.45017612 [mEh]     -46.71819084 [kcal/mol]    -195.46891048 [kJ/mol]
    Exchange sSAPT0                67.46304351 [mEh]      42.33369893 [kcal/mol]     177.12419632 [kJ/mol]
    Induction sSAPT0              -25.96751163 [mEh]     -16.29485956 [kcal/mol]     -68.17769240 [kJ/mol]
    Dispersion sSAPT0             -21.37575433 [mEh]     -13.41348835 [kcal/mol]     -56.12203527 [kJ/mol]
  Total sSAPT0                    -54.33039858 [mEh]     -34.09283982 [kcal/mol]    -142.64444182 [kJ/mol]
  --------------------------------------------------------------------------------------------------------

*** Psi4 exiting successfully. Buy a developer a beer!
