                               Psi4 1.8.2 release

  ==> Input File <==

--------------------------------------------------------------------------
MEMORY 60 GB

molecule dimer {
-1 1
Br     0.000000     0.000000     0.000000
--
0 1
O     -0.511209    -1.596324     2.879646
H     -0.433710    -0.997467     2.138130
H     -0.918528    -1.038916     3.548105
O     -3.187448     0.590894    -0.105155
H     -3.397130     0.517404     0.858241
H     -3.018042     1.507967    -0.247243
O      2.646787    -1.460966    -0.998380
H      2.179136    -1.281805    -1.828390
H      1.885375    -1.346297    -0.386432
O      0.065671     2.343883     2.229430
H     -0.131811     1.750637     1.521156
H      1.015092     2.147601     2.388385
O      2.637791     0.698439     2.316515
H      3.403190     0.095791     2.263071
H      2.040586     0.587135     1.585898

units ang
no_reorient
no_com
symmetry c1
}

set {
basis        aug-cc-pVTZ
scf_type     df
}

energy("sapt2+")
--------------------------------------------------------------------------

  //              Dimer HF             //
    Molecular point group: c1
  Charge       = -1
  Multiplicity = 1
  Basis Set: AUG-CC-PVTZ
    Blend: AUG-CC-PVTZ
  Basis Set: (AUG-CC-PVTZ AUX)
    Blend: AUG-CC-PVTZ-JKFIT
  @DF-RHF Final Energy: -2952.86483634708520
    Total Energy =                      -2952.8648363470847471
 Dipole X            :        -30.7522853           29.9273923           -0.8248930
 Dipole Y            :        -11.9700954           12.3766819            0.4065865
 Dipole Z            :       -119.1618470          117.9517329           -1.2101141
 Magnitude           :                                                    1.5199135
  //            Monomer A HF           //
    Molecular point group: c1
  Multiplicity = 1
  Basis Set: AUG-CC-PVTZ
    Blend: AUG-CC-PVTZ
  Basis Set: (AUG-CC-PVTZ AUX)
    Blend: AUG-CC-PVTZ-JKFIT
  @DF-RHF Final Energy: -2572.53372855209955
    Total Energy =                      -2572.5337285521000013
  //            Monomer B HF           //
    Molecular point group: c1

    Geometry (in Angstrom), charge = 0, multiplicity = 1:

       Center              X                  Y                   Z               Mass
    ------------   -----------------  -----------------  -----------------  -----------------
      Gh(BR)          0.000000000000     0.000000000000     0.000000000000    78.918337600000
         O           -0.511209000000    -1.596324000000     2.879646000000    15.994914619570
         H           -0.433710000000    -0.997467000000     2.138130000000     1.007825032230
         H           -0.918528000000    -1.038916000000     3.548105000000     1.007825032230
         O           -3.187448000000     0.590894000000    -0.105155000000    15.994914619570
         H           -3.397130000000     0.517404000000     0.858241000000     1.007825032230
         H           -3.018042000000     1.507967000000    -0.247243000000     1.007825032230
         O            2.646787000000    -1.460966000000    -0.998380000000    15.994914619570
         H            2.179136000000    -1.281805000000    -1.828390000000     1.007825032230
         H            1.885375000000    -1.346297000000    -0.386432000000     1.007825032230
         O            0.065671000000     2.343883000000     2.229430000000    15.994914619570
         H           -0.131811000000     1.750637000000     1.521156000000     1.007825032230
         H            1.015092000000     2.147601000000     2.388385000000     1.007825032230
         O            2.637791000000     0.698439000000     2.316515000000    15.994914619570
         H            3.403190000000     0.095791000000     2.263071000000     1.007825032230
         H            2.040586000000     0.587135000000     1.585898000000     1.007825032230

  Charge       = 0
  Multiplicity = 1
  Basis Set: AUG-CC-PVTZ
    Blend: AUG-CC-PVTZ
  Basis Set: (AUG-CC-PVTZ AUX)
    Blend: AUG-CC-PVTZ-JKFIT

    Orbital Energies [Eh]
    ---------------------

    Doubly Occupied:

       1A    -20.589571     2A    -20.588376     3A    -20.583197
       4A    -20.577336     5A    -20.576093     6A     -1.373097
       7A     -1.364820     8A     -1.364135     9A     -1.362347
      10A     -1.361055    11A     -0.758980    12A     -0.728520
      13A     -0.720945    14A     -0.716319    15A     -0.710895
      16A     -0.610115    17A     -0.604805    18A     -0.597248
      19A     -0.596890    20A     -0.589167    21A     -0.534418
      22A     -0.526820    23A     -0.524831    24A     -0.518806
      25A     -0.517630

  @DF-RHF Final Energy:  -380.29323315831112

   => Energetics <=

    Nuclear Repulsion Energy =            165.8554224178819538
    One-Electron Energy =                -854.3044764581042045
    Two-Electron Energy =                 308.1558208819110973
    Total Energy =                       -380.2932331583111250
 Dipole X            :        -30.2268731           29.9273923           -0.2994808
 Dipole Y            :        -11.9247656           12.3766819            0.4519163
 Dipole Z            :       -118.4398754          117.9517329           -0.4881425
 Magnitude           :                                                    0.7295205

    SAPT Results
  --------------------------------------------------------------------------------------------------------
    Electrostatics                -85.83229295 [mEh]     -53.86057698 [kcal/mol]    -225.35265408 [kJ/mol]
      Elst10,r                    -84.24512686 [mEh]     -52.86461522 [kcal/mol]    -221.18555009 [kJ/mol]
      Elst12,r                     -1.58716609 [mEh]      -0.99596176 [kcal/mol]      -4.16710399 [kJ/mol]

    Exchange                       86.47076371 [mEh]      54.26122343 [kcal/mol]     227.02895884 [kJ/mol]
      Exch10                       77.06556959 [mEh]      48.35937502 [kcal/mol]     202.33562509 [kJ/mol]
      Exch10(S^2)                  76.07175271 [mEh]      47.73574551 [kcal/mol]     199.72635921 [kJ/mol]
      Exch11(S^2)                   2.93859972 [mEh]       1.84399916 [kcal/mol]       7.71529250 [kJ/mol]
      Exch12(S^2)                   6.46659440 [mEh]       4.05784925 [kcal/mol]      16.97804125 [kJ/mol]

    Induction                     -33.95824985 [mEh]     -21.30912349 [kcal/mol]     -89.15737269 [kJ/mol]
      Ind20,r                     -67.73471383 [mEh]     -42.50417463 [kcal/mol]    -177.83746666 [kJ/mol]
      Ind22                        -9.80916857 [mEh]      -6.15534621 [kcal/mol]     -25.75396853 [kJ/mol]
      Exch-Ind20,r                 45.20172195 [mEh]      28.36450876 [kcal/mol]     118.67710464 [kJ/mol]
      Exch-Ind22                    6.54599813 [mEh]       4.10767584 [kcal/mol]      17.18651573 [kJ/mol]
      delta HF,r (2)               -8.16208753 [mEh]      -5.12178725 [kcal/mol]     -21.42955786 [kJ/mol]

    Dispersion                    -29.25478223 [mEh]     -18.35765300 [kcal/mol]     -76.80842017 [kJ/mol]
      Disp20                      -33.82492211 [mEh]     -21.22545907 [kcal/mol]     -88.80732077 [kJ/mol]
      Disp21                        2.55363918 [mEh]       1.60243278 [kcal/mol]       6.70457874 [kJ/mol]
      Disp22 (SDQ)                 -0.17716757 [mEh]      -0.11117433 [kcal/mol]      -0.46515338 [kJ/mol]
      Disp22 (T)                   -5.31981996 [mEh]      -3.33823742 [kcal/mol]     -13.96718539 [kJ/mol]
      Est. Disp22 (T)              -6.10133120 [mEh]      -3.82864313 [kcal/mol]     -16.01904287 [kJ/mol]
      Exch-Disp20                   8.29499947 [mEh]       5.20519075 [kcal/mol]      21.77851811 [kJ/mol]

  Total HF                        -37.87463667 [mEh]     -23.76669333 [kcal/mol]     -99.43984489 [kJ/mol]
  Total SAPT0                     -63.40455931 [mEh]     -39.78696165 [kcal/mol]    -166.46864754 [kJ/mol]
  Total SAPT2                     -58.84970172 [mEh]     -36.92874536 [kcal/mol]    -154.50987059 [kJ/mol]
  Total SAPT2+                    -62.57456132 [mEh]     -39.26613004 [kcal/mol]    -164.28948810 [kJ/mol]

  Special recipe for scaled SAPT0 (see Manual):
    Electrostatics sSAPT0         -84.24512686 [mEh]     -52.86461522 [kcal/mol]    -221.18555009 [kJ/mol]
    Exchange sSAPT0                77.06556959 [mEh]      48.35937502 [kcal/mol]     202.33562509 [kJ/mol]
    Induction sSAPT0              -28.90026089 [mEh]     -18.13518750 [kcal/mol]     -75.87762451 [kJ/mol]
    Dispersion sSAPT0             -25.20055424 [mEh]     -15.81358653 [kcal/mol]     -66.16404605 [kJ/mol]
  Total sSAPT0                    -61.28037240 [mEh]     -38.45401424 [kcal/mol]    -160.89159557 [kJ/mol]
  --------------------------------------------------------------------------------------------------------

*** Psi4 exiting successfully. Buy a developer a beer!
