                               Psi4 1.8.2 release

  ==> Input File <==

--------------------------------------------------------------------------
MEMORY 60 GB

molecule dimer {
-1 1
Br     0.000000     0.000000     0.000000
--
0 1
O     -1.940430    -2.565513     0.899073
H     -2.030209    -2.518827     1.877284
H     -1.295089    -1.914109     0.676999
O      0.553447     2.582178     2.321146
H      0.620745     1.665940     2.488208
H      1.397611     2.901012     2.170963
O     -1.302614    -1.622954    -2.889180
H     -1.645295    -0.838258    -3.392872
H     -0.914137    -1.279381    -2.076378
O      2.785557    -0.938036    -1.642619
H      3.238266    -1.550119    -1.047537
H      2.005838    -0.710489    -1.193734
O      0.626728     2.977561    -1.391010
H     -0.065650     2.917648    -2.116526
H      1.310986     2.330535    -1.671214

units ang
no_reorient
no_com
symmetry c1
}

set {
basis        aug-cc-pVTZ
scf_type     df
}

energy("sapt2+")
--------------------------------------------------------------------------

  //              Dimer HF             //
    Molecular point group: c1
  Charge       = -1
  Multiplicity = 1
  Basis Set: AUG-CC-PVTZ
    Blend: AUG-CC-PVTZ
  Basis Set: (AUG-CC-PVTZ AUX)
    Blend: AUG-CC-PVTZ-JKFIT
  @DF-RHF Final Energy: -2952.85985230594270
    Total Energy =                      -2952.8598523059426952
 Dipole X            :        -15.1927463           15.8823355            0.6895892
 Dipole Y            :         -7.8881182            8.4467734            0.5586552
 Dipole Z            :         49.9558468          -48.9543512            1.0014956
 Magnitude           :                                                    1.3381414
  //            Monomer A HF           //
    Molecular point group: c1
  Multiplicity = 1
  Basis Set: AUG-CC-PVTZ
    Blend: AUG-CC-PVTZ
  Basis Set: (AUG-CC-PVTZ AUX)
    Blend: AUG-CC-PVTZ-JKFIT
  @DF-RHF Final Energy: -2572.53372019062954
    Total Energy =                      -2572.5337201906295377
  //            Monomer B HF           //
    Molecular point group: c1

    Geometry (in Angstrom), charge = 0, multiplicity = 1:

       Center              X                  Y                   Z               Mass
    ------------   -----------------  -----------------  -----------------  -----------------
      Gh(BR)          0.000000000000     0.000000000000     0.000000000000    78.918337600000
         O           -1.940430000000    -2.565513000000     0.899073000000    15.994914619570
         H           -2.030209000000    -2.518827000000     1.877284000000     1.007825032230
         H           -1.295089000000    -1.914109000000     0.676999000000     1.007825032230
         O            0.553447000000     2.582178000000     2.321146000000    15.994914619570
         H            0.620745000000     1.665940000000     2.488208000000     1.007825032230
         H            1.397611000000     2.901012000000     2.170963000000     1.007825032230
         O           -1.302614000000    -1.622954000000    -2.889180000000    15.994914619570
         H           -1.645295000000    -0.838258000000    -3.392872000000     1.007825032230
         H           -0.914137000000    -1.279381000000    -2.076378000000     1.007825032230
         O            2.785557000000    -0.938036000000    -1.642619000000    15.994914619570
         H            3.238266000000    -1.550119000000    -1.047537000000     1.007825032230
         H            2.005838000000    -0.710489000000    -1.193734000000     1.007825032230
         O            0.626728000000     2.977561000000    -1.391010000000    15.994914619570
         H           -0.065650000000     2.917648000000    -2.116526000000     1.007825032230
         H            1.310986000000     2.330535000000    -1.671214000000     1.007825032230

  Charge       = 0
  Multiplicity = 1
  Basis Set: AUG-CC-PVTZ
    Blend: AUG-CC-PVTZ
  Basis Set: (AUG-CC-PVTZ AUX)
    Blend: AUG-CC-PVTZ-JKFIT

    Orbital Energies [Eh]
    ---------------------

    Doubly Occupied:

       1A    -20.581604     2A    -20.579595     3A    -20.576989
       4A    -20.574125     5A    -20.560278     6A     -1.375646
       7A     -1.369514     8A     -1.359299     9A     -1.345474
      10A     -1.342183    11A     -0.743648    12A     -0.740225
      13A     -0.725710    14A     -0.713817    15A     -0.702510
      16A     -0.602797    17A     -0.590179    18A     -0.585660
      19A     -0.584377    20A     -0.579976    21A     -0.527440
      22A     -0.518363    23A     -0.515699    24A     -0.511337
      25A     -0.510182

  @DF-RHF Final Energy:  -380.28784892593279

   => Energetics <=

    Nuclear Repulsion Energy =            151.8663550972983671
    One-Electron Energy =                -826.6751448544436016
    Two-Electron Energy =                 294.5209408312123855
    Total Energy =                       -380.2878489259327921
 Dipole X            :        -15.1005063           15.8823355            0.7818292
 Dipole Y            :         -8.3772782            8.4467734            0.0694953
 Dipole Z            :         49.6772252          -48.9543512            0.7228740
 Magnitude           :                                                    1.0670676

    SAPT Results
  --------------------------------------------------------------------------------------------------------
    Electrostatics                -66.73144108 [mEh]     -41.87461148 [kcal/mol]    -175.20337442 [kJ/mol]
      Elst10,r                    -65.83321197 [mEh]     -41.31096420 [kcal/mol]    -172.84507422 [kJ/mol]
      Elst12,r                     -0.89822911 [mEh]      -0.56364728 [kcal/mol]      -2.35830020 [kJ/mol]

    Exchange                       58.41441692 [mEh]      36.65560002 [kcal/mol]     153.36703049 [kJ/mol]
      Exch10                       51.67604285 [mEh]      32.42720645 [kcal/mol]     135.67543180 [kJ/mol]
      Exch10(S^2)                  51.25953427 [mEh]      32.16584337 [kcal/mol]     134.58188868 [kJ/mol]
      Exch11(S^2)                   1.90616207 [mEh]       1.19613476 [kcal/mol]       5.00462782 [kJ/mol]
      Exch12(S^2)                   4.83221200 [mEh]       3.03225881 [kcal/mol]      12.68697087 [kJ/mol]

    Induction                     -26.67957404 [mEh]     -16.74168547 [kcal/mol]     -70.04721199 [kJ/mol]
      Ind20,r                     -48.10691518 [mEh]     -30.18754503 [kcal/mol]    -126.30468839 [kJ/mol]
      Ind22                        -6.73331334 [mEh]      -4.22521791 [kcal/mol]     -17.67831173 [kJ/mol]
      Exch-Ind20,r                 29.86276269 [mEh]      18.73916650 [kcal/mol]      78.40467264 [kJ/mol]
      Exch-Ind22                    4.17975955 [mEh]       2.62283872 [kcal/mol]      10.97395720 [kJ/mol]
      delta HF,r (2)               -5.88186777 [mEh]      -3.69092775 [kcal/mol]     -15.44284171 [kJ/mol]

    Dispersion                    -22.92191110 [mEh]     -14.38371637 [kcal/mol]     -60.18146930 [kJ/mol]
      Disp20                      -25.74302666 [mEh]     -16.15399312 [kcal/mol]     -67.58830720 [kJ/mol]
      Disp21                        1.69003052 [mEh]       1.06051016 [kcal/mol]       4.43717452 [kJ/mol]
      Disp22 (SDQ)                 -0.13139275 [mEh]      -0.08245020 [kcal/mol]      -0.34497163 [kJ/mol]
      Disp22 (T)                   -4.03619228 [mEh]      -2.53274890 [kcal/mol]     -10.59702138 [kJ/mol]
      Est. Disp22 (T)              -4.69107006 [mEh]      -2.94369091 [kcal/mol]     -12.31640276 [kJ/mol]
      Exch-Disp20                   5.95354786 [mEh]       3.73590769 [kcal/mol]      15.63103777 [kJ/mol]

  Total HF                        -38.28318938 [mEh]     -24.02306402 [kcal/mol]    -100.51249987 [kJ/mol]
  Total SAPT0                     -58.07266818 [mEh]     -36.44114945 [kcal/mol]    -152.46976930 [kJ/mol]
  Total SAPT2                     -54.78607700 [mEh]     -34.37878235 [kcal/mol]    -143.84082536 [kJ/mol]
  Total SAPT2+                    -57.91850930 [mEh]     -36.34441329 [kcal/mol]    -152.06502522 [kJ/mol]

  Special recipe for scaled SAPT0 (see Manual):
    Electrostatics sSAPT0         -65.83321197 [mEh]     -41.31096420 [kcal/mol]    -172.84507422 [kJ/mol]
    Exchange sSAPT0                51.67604285 [mEh]      32.42720645 [kcal/mol]     135.67543180 [kJ/mol]
    Induction sSAPT0              -23.39214101 [mEh]     -14.67879009 [kcal/mol]     -61.41605775 [kJ/mol]
    Dispersion sSAPT0             -19.64316999 [mEh]     -12.32627526 [kcal/mol]     -51.57313571 [kJ/mol]
  Total sSAPT0                    -57.19248012 [mEh]     -35.88882310 [kcal/mol]    -150.15883587 [kJ/mol]
  --------------------------------------------------------------------------------------------------------

*** Psi4 exiting successfully. Buy a developer a beer!
