                               Psi4 1.8.2 release

  ==> Input File <==

--------------------------------------------------------------------------
MEMORY 60 GB

molecule dimer {
-1 1
Br     0.000000     0.000000     0.000000
--
0 1
O     -0.532809     1.922738    -2.739100
H     -0.280531     1.490316    -1.875736
H     -0.953311     1.232509    -3.332771
O     -1.825040     1.989986     2.364796
H     -1.476176     1.902850     3.256188
H     -1.117718     1.930523     1.713505
O      1.897897    -0.527032    -2.560802
H      2.254682     0.294757    -2.824082
H      1.284234    -0.440483    -1.819197
O     -3.381797     0.146011    -0.729659
H     -3.647086     0.178508     0.207781
H     -2.420093     0.129388    -0.713625
O     -1.303184    -2.414765    -1.874233
H     -0.735005    -2.478283    -2.608129
H     -1.009543    -1.639149    -1.422000

units ang
no_reorient
no_com
symmetry c1
}

set {
basis        aug-cc-pVTZ
scf_type     df
}

energy("sapt2+")
--------------------------------------------------------------------------

  //              Dimer HF             //
    Molecular point group: c1
  Charge       = -1
  Multiplicity = 1
  Basis Set: AUG-CC-PVTZ
    Blend: AUG-CC-PVTZ
  Basis Set: (AUG-CC-PVTZ AUX)
    Blend: AUG-CC-PVTZ-JKFIT
  @DF-RHF Final Energy: -2952.87848841688310
    Total Energy =                      -2952.8784884168831013
 Dipole X            :         94.8588969          -93.0879297            1.7709672
 Dipole Y            :        -21.6377306           21.8007121            0.1629814
 Dipole Z            :        103.4062866         -101.5350792            1.8712074
 Magnitude           :                                                    2.5815315
  //            Monomer A HF           //
    Molecular point group: c1
  Multiplicity = 1
  Basis Set: AUG-CC-PVTZ
    Blend: AUG-CC-PVTZ
  Basis Set: (AUG-CC-PVTZ AUX)
    Blend: AUG-CC-PVTZ-JKFIT
  @DF-RHF Final Energy: -2572.53373034954393
    Total Energy =                      -2572.5337303495439301
  //            Monomer B HF           //
    Molecular point group: c1

    Geometry (in Angstrom), charge = 0, multiplicity = 1:

       Center              X                  Y                   Z               Mass
    ------------   -----------------  -----------------  -----------------  -----------------
      Gh(BR)          0.000000000000     0.000000000000     0.000000000000    78.918337600000
         O           -0.532809000000     1.922738000000    -2.739100000000    15.994914619570
         H           -0.280531000000     1.490316000000    -1.875736000000     1.007825032230
         H           -0.953311000000     1.232509000000    -3.332771000000     1.007825032230
         O           -1.825040000000     1.989986000000     2.364796000000    15.994914619570
         H           -1.476176000000     1.902850000000     3.256188000000     1.007825032230
         H           -1.117718000000     1.930523000000     1.713505000000     1.007825032230
         O            1.897897000000    -0.527032000000    -2.560802000000    15.994914619570
         H            2.254682000000     0.294757000000    -2.824082000000     1.007825032230
         H            1.284234000000    -0.440483000000    -1.819197000000     1.007825032230
         O           -3.381797000000     0.146011000000    -0.729659000000    15.994914619570
         H           -3.647086000000     0.178508000000     0.207781000000     1.007825032230
         H           -2.420093000000     0.129388000000    -0.713625000000     1.007825032230
         O           -1.303184000000    -2.414765000000    -1.874233000000    15.994914619570
         H           -0.735005000000    -2.478283000000    -2.608129000000     1.007825032230
         H           -1.009543000000    -1.639149000000    -1.422000000000     1.007825032230

  Charge       = 0
  Multiplicity = 1
  Basis Set: AUG-CC-PVTZ
    Blend: AUG-CC-PVTZ
  Basis Set: (AUG-CC-PVTZ AUX)
    Blend: AUG-CC-PVTZ-JKFIT

    Orbital Energies [Eh]
    ---------------------

    Doubly Occupied:

       1A    -20.592123     2A    -20.585700     3A    -20.583954
       4A    -20.574473     5A    -20.570255     6A     -1.376079
       7A     -1.374748     8A     -1.365420     9A     -1.349614
      10A     -1.348768    11A     -0.760656    12A     -0.745462
      13A     -0.739960    14A     -0.721786    15A     -0.713623
      16A     -0.599346    17A     -0.596436    18A     -0.590820
      19A     -0.586223    20A     -0.582486    21A     -0.534808
      22A     -0.526813    23A     -0.522958    24A     -0.521969
      25A     -0.509004

  @DF-RHF Final Energy:  -380.28455252698689

   => Energetics <=

    Nuclear Repulsion Energy =            167.2911927808644634
    One-Electron Energy =                -857.2045164810449478
    Two-Electron Energy =                 309.6287711731936270
    Total Energy =                       -380.2845525269868858
 Dipole X            :         94.4839906          -93.0879297            1.3960609
 Dipole Y            :        -21.5004689           21.8007121            0.3002431
 Dipole Z            :        102.5517773         -101.5350792            1.0166981
 Magnitude           :                                                    1.7529424

    SAPT Results
  --------------------------------------------------------------------------------------------------------
    Electrostatics                -98.33057282 [mEh]     -61.70336601 [kcal/mol]    -258.16688337 [kJ/mol]
      Elst10,r                    -98.12949144 [mEh]     -61.57718554 [kcal/mol]    -257.63894429 [kJ/mol]
      Elst12,r                     -0.20108137 [mEh]      -0.12618047 [kcal/mol]      -0.52793908 [kJ/mol]

    Exchange                       79.43429728 [mEh]      49.84577409 [kcal/mol]     208.55471878 [kJ/mol]
      Exch10                       70.52110699 [mEh]      44.25266274 [kcal/mol]     185.15314090 [kJ/mol]
      Exch10(S^2)                  69.50200576 [mEh]      43.61316706 [kcal/mol]     182.47749097 [kJ/mol]
      Exch11(S^2)                   3.33348784 [mEh]       2.09179520 [kcal/mol]       8.75207111 [kJ/mol]
      Exch12(S^2)                   5.57970245 [mEh]       3.50131615 [kcal/mol]      14.64950677 [kJ/mol]

    Induction                     -35.86333334 [mEh]     -22.50458143 [kcal/mol]     -94.15916872 [kJ/mol]
      Ind20,r                     -60.68739902 [mEh]     -38.08191782 [kcal/mol]    -159.33474417 [kJ/mol]
      Ind22                        -8.53183387 [mEh]      -5.35380658 [kcal/mol]     -22.40032675 [kJ/mol]
      Exch-Ind20,r                 37.45490098 [mEh]      23.50330520 [kcal/mol]      98.33782897 [kJ/mol]
      Exch-Ind22                    5.26565643 [mEh]       3.30424930 [kcal/mol]      13.82497905 [kJ/mol]
      delta HF,r (2)               -9.36465786 [mEh]      -5.87641153 [kcal/mol]     -24.58690583 [kJ/mol]

    Dispersion                    -28.12004190 [mEh]     -17.64559270 [kcal/mol]     -73.82915984 [kJ/mol]
      Disp20                      -31.95487280 [mEh]     -20.05198542 [kcal/mol]     -83.89750698 [kJ/mol]
      Disp21                        2.34467391 [mEh]       1.47130509 [kcal/mol]       6.15594051 [kJ/mol]
      Disp22 (SDQ)                 -0.11032324 [mEh]      -0.06922888 [kcal/mol]      -0.28965364 [kJ/mol]
      Disp22 (T)                   -5.09035945 [mEh]      -3.19424878 [kcal/mol]     -13.36473691 [kJ/mol]
      Est. Disp22 (T)              -5.81366188 [mEh]      -3.64812791 [kcal/mol]     -15.26376717 [kJ/mol]
      Exch-Disp20                   7.41414211 [mEh]       4.65244442 [kcal/mol]      19.46582744 [kJ/mol]

  Total HF                        -60.20554035 [mEh]     -37.77954694 [kcal/mol]    -158.06962442 [kJ/mol]
  Total SAPT0                     -84.74627104 [mEh]     -53.17908795 [kcal/mol]    -222.50130396 [kJ/mol]
  Total SAPT2                     -79.30033957 [mEh]     -49.76171435 [kcal/mol]    -208.20301285 [kJ/mol]
  Total SAPT2+                    -82.87965078 [mEh]     -52.00776605 [kcal/mol]    -217.60049314 [kJ/mol]

  Special recipe for scaled SAPT0 (see Manual):
    Electrostatics sSAPT0         -98.12949144 [mEh]     -61.57718554 [kcal/mol]    -257.63894429 [kJ/mol]
    Exchange sSAPT0                70.52110699 [mEh]      44.25266274 [kcal/mol]     185.15314090 [kJ/mol]
    Induction sSAPT0              -30.92528648 [mEh]     -19.40591024 [kcal/mol]     -81.19432846 [kJ/mol]
    Dispersion sSAPT0             -24.20978661 [mEh]     -15.19187046 [kcal/mol]     -63.56278600 [kJ/mol]
  Total sSAPT0                    -82.74345754 [mEh]     -51.92230350 [kcal/mol]    -217.24291785 [kJ/mol]
  --------------------------------------------------------------------------------------------------------

*** Psi4 exiting successfully. Buy a developer a beer!
