                               Psi4 1.8.2 release

  ==> Input File <==

--------------------------------------------------------------------------
MEMORY 60 GB

molecule dimer {
-1 1
Br     0.000000     0.000000     0.000000
--
0 1
O      1.877253    -0.925629    -2.503878
H      1.568959    -0.369866    -1.756608
H      1.769866    -1.829815    -2.152507
O      0.170065     2.901916    -1.500734
H     -0.216467     2.541833    -2.272789
H      0.178509     2.130837    -0.924963
O      0.283163    -1.282719     3.211734
H      0.144151    -0.907789     2.345728
H     -0.490220    -1.053040     3.745017
O      3.272579    -0.761567     0.566827
H      2.477722    -0.224904     0.466952
H      2.968580    -1.638178     0.298848
O      0.955461     2.446042     2.162195
H      0.814632     1.637742     1.624264
H      0.875880     2.278959     3.123204
O     -1.258581    -1.316716    -3.035756
H     -2.002288    -0.752139    -3.089390
H     -0.819194    -1.250416    -2.138434

units ang
no_reorient
no_com
symmetry c1
}

set {
basis        aug-cc-pVTZ
scf_type     df
}

energy("sapt2+")
--------------------------------------------------------------------------

  //              Dimer HF             //
    Molecular point group: c1
  Charge       = -1
  Multiplicity = 1
  Basis Set: AUG-CC-PVTZ
    Blend: AUG-CC-PVTZ
  Basis Set: (AUG-CC-PVTZ AUX)
    Blend: AUG-CC-PVTZ-JKFIT
  @DF-RHF Final Energy: -3028.94012597036044
    Total Energy =                      -3028.9401259703608957
 Dipole X            :        -96.4574368           93.8620352           -2.5954015
 Dipole Y            :        -18.1875866           17.1092780           -1.0783087
 Dipole Z            :         18.9991837          -18.0045055            0.9946782
 Magnitude           :                                                    2.9813157
  //            Monomer A HF           //
    Molecular point group: c1
  Multiplicity = 1
  Basis Set: AUG-CC-PVTZ
    Blend: AUG-CC-PVTZ
  Basis Set: (AUG-CC-PVTZ AUX)
    Blend: AUG-CC-PVTZ-JKFIT
  @DF-RHF Final Energy: -2572.53374153191544
    Total Energy =                      -2572.5337415319158936
  //            Monomer B HF           //
    Molecular point group: c1

    Geometry (in Angstrom), charge = 0, multiplicity = 1:

       Center              X                  Y                   Z               Mass
    ------------   -----------------  -----------------  -----------------  -----------------
      Gh(BR)          0.000000000000     0.000000000000     0.000000000000    78.918337600000
         O            1.877253000000    -0.925629000000    -2.503878000000    15.994914619570
         H            1.568959000000    -0.369866000000    -1.756608000000     1.007825032230
         H            1.769866000000    -1.829815000000    -2.152507000000     1.007825032230
         O            0.170065000000     2.901916000000    -1.500734000000    15.994914619570
         H           -0.216467000000     2.541833000000    -2.272789000000     1.007825032230
         H            0.178509000000     2.130837000000    -0.924963000000     1.007825032230
         O            0.283163000000    -1.282719000000     3.211734000000    15.994914619570
         H            0.144151000000    -0.907789000000     2.345728000000     1.007825032230
         H           -0.490220000000    -1.053040000000     3.745017000000     1.007825032230
         O            3.272579000000    -0.761567000000     0.566827000000    15.994914619570
         H            2.477722000000    -0.224904000000     0.466952000000     1.007825032230
         H            2.968580000000    -1.638178000000     0.298848000000     1.007825032230
         O            0.955461000000     2.446042000000     2.162195000000    15.994914619570
         H            0.814632000000     1.637742000000     1.624264000000     1.007825032230
         H            0.875880000000     2.278959000000     3.123204000000     1.007825032230
         O           -1.258581000000    -1.316716000000    -3.035756000000    15.994914619570
         H           -2.002288000000    -0.752139000000    -3.089390000000     1.007825032230
         H           -0.819194000000    -1.250416000000    -2.138434000000     1.007825032230

  Charge       = 0
  Multiplicity = 1
  Basis Set: AUG-CC-PVTZ
    Blend: AUG-CC-PVTZ
  Basis Set: (AUG-CC-PVTZ AUX)
    Blend: AUG-CC-PVTZ-JKFIT

    Orbital Energies [Eh]
    ---------------------

    Doubly Occupied:

       1A    -20.594755     2A    -20.592060     3A    -20.588542
       4A    -20.585691     5A    -20.582557     6A    -20.581307
       7A     -1.378280     8A     -1.374469     9A     -1.370649
      10A     -1.365186    11A     -1.360632    12A     -1.354968
      13A     -0.749124    14A     -0.741666    15A     -0.740047
      16A     -0.729765    17A     -0.727858    18A     -0.721584
      19A     -0.611232    20A     -0.606629    21A     -0.605833
      22A     -0.598036    23A     -0.585243    24A     -0.582018
      25A     -0.537839    26A     -0.536620    27A     -0.526354
      28A     -0.525480    29A     -0.523080    30A     -0.516244

  @DF-RHF Final Energy:  -456.33069155825171

   => Energetics <=

    Nuclear Repulsion Energy =            228.4407085456615789
    One-Electron Energy =               -1083.7552989420842096
    Two-Electron Energy =                 398.9838988381709441
    Total Energy =                       -456.3306915582517149
 Dipole X            :        -95.9089980           93.8620352           -2.0469627
 Dipole Y            :        -18.0707924           17.1092780           -0.9615144
 Dipole Z            :         18.9284569          -18.0045055            0.9239514
 Magnitude           :                                                    2.4430007

    SAPT Results
  --------------------------------------------------------------------------------------------------------
    Electrostatics               -124.69026702 [mEh]     -78.24432384 [kcal/mol]    -327.37425096 [kJ/mol]
      Elst10,r                   -125.02138814 [mEh]     -78.45210548 [kcal/mol]    -328.24360934 [kJ/mol]
      Elst12,r                      0.33112112 [mEh]       0.20778164 [kcal/mol]       0.86935838 [kJ/mol]

    Exchange                       94.55882556 [mEh]      59.33655887 [kcal/mol]     248.26416231 [kJ/mol]
      Exch10                       82.95202484 [mEh]      52.05318146 [kcal/mol]     217.79051122 [kJ/mol]
      Exch10(S^2)                  82.00755244 [mEh]      51.46051608 [kcal/mol]     215.31079928 [kJ/mol]
      Exch11(S^2)                   4.72060522 [mEh]       2.96222450 [kcal/mol]      12.39394730 [kJ/mol]
      Exch12(S^2)                   6.88619550 [mEh]       4.32115291 [kcal/mol]      18.07970379 [kJ/mol]

    Induction                     -37.67865229 [mEh]     -23.64371127 [kcal/mol]     -98.92528797 [kJ/mol]
      Ind20,r                     -69.13088368 [mEh]     -43.38028444 [kcal/mol]    -181.50311010 [kJ/mol]
      Ind22                       -10.94152469 [mEh]      -6.86591040 [kcal/mol]     -28.72696913 [kJ/mol]
      Exch-Ind20,r                 43.50967445 [mEh]      27.30273292 [kcal/mol]     114.23463452 [kJ/mol]
      Exch-Ind22                    6.88638930 [mEh]       4.32127452 [kcal/mol]      18.08021261 [kJ/mol]
      delta HF,r (2)               -8.00230766 [mEh]      -5.02152387 [kcal/mol]     -21.01005587 [kJ/mol]

    Dispersion                    -34.71169945 [mEh]     -21.78192026 [kcal/mol]     -91.13555435 [kJ/mol]
      Disp20                      -39.33993575 [mEh]     -24.68618238 [kcal/mol]    -103.28698707 [kJ/mol]
      Disp21                        2.92168083 [mEh]       1.83338240 [kcal/mol]       7.67087197 [kJ/mol]
      Disp22 (SDQ)                 -0.21542918 [mEh]      -0.13518385 [kcal/mol]      -0.56560924 [kJ/mol]
      Disp22 (T)                   -6.36395114 [mEh]      -3.99343963 [kcal/mol]     -16.70855141 [kJ/mol]
      Est. Disp22 (T)              -7.26140480 [mEh]      -4.55660030 [kcal/mol]     -19.06481567 [kJ/mol]
      Exch-Disp20                   9.18338945 [mEh]       5.76266388 [kcal/mol]      24.11098567 [kJ/mol]

  Total HF                        -75.69288019 [mEh]     -47.49799942 [kcal/mol]    -198.73162957 [kJ/mol]
  Total SAPT0                    -105.84942649 [mEh]     -66.42151792 [kcal/mol]    -277.90763097 [kJ/mol]
  Total SAPT2                     -97.96664005 [mEh]     -61.47499475 [kcal/mol]    -257.21137802 [kJ/mol]
  Total SAPT2+                   -102.52179320 [mEh]     -64.33339650 [kcal/mol]    -269.17093097 [kJ/mol]

  Special recipe for scaled SAPT0 (see Manual):
    Electrostatics sSAPT0        -125.02138814 [mEh]     -78.45210548 [kcal/mol]    -328.24360934 [kJ/mol]
    Exchange sSAPT0                82.95202484 [mEh]      52.05318146 [kcal/mol]     217.79051122 [kJ/mol]
    Induction sSAPT0              -32.10284810 [mEh]     -20.14484132 [kcal/mol]     -84.28601608 [kJ/mol]
    Dispersion sSAPT0             -29.83558564 [mEh]     -18.72211265 [kcal/mol]     -78.33331931 [kJ/mol]
  Total sSAPT0                   -104.00779705 [mEh]     -65.26587799 [kcal/mol]    -273.07243352 [kJ/mol]
  --------------------------------------------------------------------------------------------------------

*** Psi4 exiting successfully. Buy a developer a beer!
