                               Psi4 1.8.2 release

  ==> Input File <==

--------------------------------------------------------------------------
MEMORY 60 GB

molecule dimer {
-1 1
Br     0.000000     0.000000     0.000000
--
0 1
O     -2.035183     0.505931    -2.714884
H     -1.976795     1.463081    -2.600066
H     -1.297730     0.131163    -2.176587
O      3.263034     0.338969    -1.106453
H      2.366786     0.373527    -0.759632
H      3.697550     0.015590    -0.296441
O      2.178094    -2.034010     1.585940
H      1.627600    -1.749935     0.822231
H      1.500081    -2.085197     2.285919
O      1.183323    -2.765482    -1.699569
H      0.620307    -3.433026    -1.331715
H      0.809411    -1.929569    -1.365631

units ang
no_reorient
no_com
symmetry c1
}

set {
basis        aug-cc-pVTZ
scf_type     df
}

energy("sapt2+")
--------------------------------------------------------------------------

  //              Dimer HF             //
    Molecular point group: c1
  Charge       = -1
  Multiplicity = 1
  Basis Set: AUG-CC-PVTZ
    Blend: AUG-CC-PVTZ
  Basis Set: (AUG-CC-PVTZ AUX)
    Blend: AUG-CC-PVTZ-JKFIT
  @DF-RHF Final Energy: -2876.81580212815697
    Total Energy =                      -2876.8158021281569745
 Dipole X            :        -84.8555281           83.2638918           -1.5916363
 Dipole Y            :         74.2750614          -73.4179425            0.8571189
 Dipole Z            :         71.6921580          -69.7340121            1.9581459
 Magnitude           :                                                    2.6650130
  //            Monomer A HF           //
    Molecular point group: c1
  Multiplicity = 1
  Basis Set: AUG-CC-PVTZ
    Blend: AUG-CC-PVTZ
  Basis Set: (AUG-CC-PVTZ AUX)
    Blend: AUG-CC-PVTZ-JKFIT
  @DF-RHF Final Energy: -2572.53371679061456
    Total Energy =                      -2572.5337167906145623
  //            Monomer B HF           //
    Molecular point group: c1

    Geometry (in Angstrom), charge = 0, multiplicity = 1:

       Center              X                  Y                   Z               Mass
    ------------   -----------------  -----------------  -----------------  -----------------
      Gh(BR)          0.000000000000     0.000000000000     0.000000000000    78.918337600000
         O           -2.035183000000     0.505931000000    -2.714884000000    15.994914619570
         H           -1.976795000000     1.463081000000    -2.600066000000     1.007825032230
         H           -1.297730000000     0.131163000000    -2.176587000000     1.007825032230
         O            3.263034000000     0.338969000000    -1.106453000000    15.994914619570
         H            2.366786000000     0.373527000000    -0.759632000000     1.007825032230
         H            3.697550000000     0.015590000000    -0.296441000000     1.007825032230
         O            2.178094000000    -2.034010000000     1.585940000000    15.994914619570
         H            1.627600000000    -1.749935000000     0.822231000000     1.007825032230
         H            1.500081000000    -2.085197000000     2.285919000000     1.007825032230
         O            1.183323000000    -2.765482000000    -1.699569000000    15.994914619570
         H            0.620307000000    -3.433026000000    -1.331715000000     1.007825032230
         H            0.809411000000    -1.929569000000    -1.365631000000     1.007825032230

  Charge       = 0
  Multiplicity = 1
  Basis Set: AUG-CC-PVTZ
    Blend: AUG-CC-PVTZ
  Basis Set: (AUG-CC-PVTZ AUX)
    Blend: AUG-CC-PVTZ-JKFIT

    Orbital Energies [Eh]
    ---------------------

    Doubly Occupied:

       1A    -20.590890     2A    -20.584148     3A    -20.581434
       4A    -20.575036     5A     -1.368330     6A     -1.363038
       7A     -1.356411     8A     -1.354500     9A     -0.731863
      10A     -0.720467    11A     -0.716006    12A     -0.700857
      13A     -0.607080    14A     -0.599821    15A     -0.597992
      16A     -0.590116    17A     -0.530666    18A     -0.522773
      19A     -0.519438    20A     -0.513874

  @DF-RHF Final Energy:  -304.22732183367799

   => Energetics <=

    Nuclear Repulsion Energy =            109.7529465634973462
    One-Electron Energy =                -637.7110549698534214
    Two-Electron Energy =                 223.7307865726781415
    Total Energy =                       -304.2273218336779905
 Dipole X            :        -84.3762755           83.2638918           -1.1123837
 Dipole Y            :         73.7792058          -73.4179425            0.3612633
 Dipole Z            :         71.2812349          -69.7340121            1.5472228
 Magnitude           :                                                    1.9395379

    SAPT Results
  --------------------------------------------------------------------------------------------------------
    Electrostatics                -79.67771030 [mEh]     -49.99851806 [kcal/mol]    -209.19379957 [kJ/mol]
      Elst10,r                    -80.32541698 [mEh]     -50.40496014 [kcal/mol]    -210.89435322 [kJ/mol]
      Elst12,r                      0.64770668 [mEh]       0.40644208 [kcal/mol]       1.70055365 [kJ/mol]

    Exchange                       55.50935827 [mEh]      34.83264820 [kcal/mol]     145.73980007 [kJ/mol]
      Exch10                       48.94476828 [mEh]      30.71330579 [kcal/mol]     128.50447141 [kJ/mol]
      Exch10(S^2)                  48.40977316 [mEh]      30.37759128 [kcal/mol]     127.09984192 [kJ/mol]
      Exch11(S^2)                   2.48767065 [mEh]       1.56103690 [kcal/mol]       6.53137840 [kJ/mol]
      Exch12(S^2)                   4.07691934 [mEh]       2.55830551 [kcal/mol]      10.70395026 [kJ/mol]

    Induction                     -25.74149236 [mEh]     -16.15303033 [kcal/mol]     -67.58427888 [kJ/mol]
      Ind20,r                     -43.50401510 [mEh]     -27.29918163 [kcal/mol]    -114.21977592 [kJ/mol]
      Ind22                        -6.13841700 [mEh]      -3.85191482 [kcal/mol]     -16.11641162 [kJ/mol]
      Exch-Ind20,r                 26.78794837 [mEh]      16.80969138 [kcal/mol]      70.33174875 [kJ/mol]
      Exch-Ind22                    3.77977980 [mEh]       2.37184764 [kcal/mol]       9.92381051 [kJ/mol]
      delta HF,r (2)               -6.66678842 [mEh]      -4.18347290 [kcal/mol]     -17.50365060 [kJ/mol]

    Dispersion                    -21.14298062 [mEh]     -13.26742064 [kcal/mol]     -55.51088797 [kJ/mol]
      Disp20                      -23.73649168 [mEh]     -14.89487340 [kcal/mol]     -62.32015033 [kJ/mol]
      Disp21                        1.65851102 [mEh]       1.04073137 [kcal/mol]       4.35442007 [kJ/mol]
      Disp22 (SDQ)                 -0.14418366 [mEh]      -0.09047661 [kcal/mol]      -0.37855415 [kJ/mol]
      Disp22 (T)                   -3.82563173 [mEh]      -2.40062015 [kcal/mol]     -10.04419472 [kJ/mol]
      Est. Disp22 (T)              -4.39128882 [mEh]      -2.75557534 [kcal/mol]     -11.52932722 [kJ/mol]
      Exch-Disp20                   5.47047253 [mEh]       3.43277334 [kcal/mol]      14.36272365 [kJ/mol]

  Total HF                        -54.76350386 [mEh]     -34.36461749 [kcal/mol]    -143.78155959 [kJ/mol]
  Total SAPT0                     -73.02952301 [mEh]     -45.82671756 [kcal/mol]    -191.73898626 [kJ/mol]
  Total SAPT2                     -68.17586354 [mEh]     -42.78100025 [kcal/mol]    -178.99570505 [kJ/mol]
  Total SAPT2+                    -71.05282501 [mEh]     -44.58632083 [kcal/mol]    -186.54916635 [kJ/mol]

  Special recipe for scaled SAPT0 (see Manual):
    Electrostatics sSAPT0         -80.32541698 [mEh]     -50.40496014 [kcal/mol]    -210.89435322 [kJ/mol]
    Exchange sSAPT0                48.94476828 [mEh]      30.71330579 [kcal/mol]     128.50447141 [kJ/mol]
    Induction sSAPT0              -22.48487200 [mEh]     -14.10947020 [kcal/mol]     -59.03402330 [kJ/mol]
    Dispersion sSAPT0             -18.08263847 [mEh]     -11.34702695 [kcal/mol]     -47.47596076 [kJ/mol]
  Total sSAPT0                    -71.94815917 [mEh]     -45.14815150 [kcal/mol]    -188.89986587 [kJ/mol]
  --------------------------------------------------------------------------------------------------------

*** Psi4 exiting successfully. Buy a developer a beer!
