                               Psi4 1.8.2 release

  ==> Input File <==

--------------------------------------------------------------------------
MEMORY 60 GB

molecule dimer {
-1 1
Br     0.000000     0.000000     0.000000
--
0 1
O      0.779723     2.101047     2.199835
H      0.426021     1.474308     1.520328
H      0.408280     2.960514     1.936831
O      1.680523    -2.227455     1.670762
H      1.216158    -1.563865     1.147402
H      2.593395    -1.916082     1.738707
O     -2.177205    -0.865000     2.509215
H     -2.496326     0.047270     2.768170
H     -1.471994    -0.874637     1.842706
O      3.480100    -0.005299    -0.932052
H      2.930060    -0.789766    -1.221807
H      3.669445     0.562215    -1.658308

units ang
no_reorient
no_com
symmetry c1
}

set {
basis        aug-cc-pVTZ
scf_type     df
}

energy("sapt2+")
--------------------------------------------------------------------------

  //              Dimer HF             //
    Molecular point group: c1
  Charge       = -1
  Multiplicity = 1
  Basis Set: AUG-CC-PVTZ
    Blend: AUG-CC-PVTZ
  Basis Set: (AUG-CC-PVTZ AUX)
    Blend: AUG-CC-PVTZ-JKFIT
  @DF-RHF Final Energy: -2876.79462731688727
    Total Energy =                      -2876.7946273168877269
 Dipole X            :        -70.9351032           70.6382782           -0.2968251
 Dipole Y            :         16.5307801          -15.2570799            1.2737001
 Dipole Z            :       -100.1767973           97.6158987           -2.5608986
 Magnitude           :                                                    2.8755206
  //            Monomer A HF           //
    Molecular point group: c1
  Multiplicity = 1
  Basis Set: AUG-CC-PVTZ
    Blend: AUG-CC-PVTZ
  Basis Set: (AUG-CC-PVTZ AUX)
    Blend: AUG-CC-PVTZ-JKFIT
  @DF-RHF Final Energy: -2572.53372004279981
    Total Energy =                      -2572.5337200427998141
  //            Monomer B HF           //
    Molecular point group: c1

    Geometry (in Angstrom), charge = 0, multiplicity = 1:

       Center              X                  Y                   Z               Mass
    ------------   -----------------  -----------------  -----------------  -----------------
      Gh(BR)          0.000000000000     0.000000000000     0.000000000000    78.918337600000
         O            0.779723000000     2.101047000000     2.199835000000    15.994914619570
         H            0.426021000000     1.474308000000     1.520328000000     1.007825032230
         H            0.408280000000     2.960514000000     1.936831000000     1.007825032230
         O            1.680523000000    -2.227455000000     1.670762000000    15.994914619570
         H            1.216158000000    -1.563865000000     1.147402000000     1.007825032230
         H            2.593395000000    -1.916082000000     1.738707000000     1.007825032230
         O           -2.177205000000    -0.865000000000     2.509215000000    15.994914619570
         H           -2.496326000000     0.047270000000     2.768170000000     1.007825032230
         H           -1.471994000000    -0.874637000000     1.842706000000     1.007825032230
         O            3.480100000000    -0.005299000000    -0.932052000000    15.994914619570
         H            2.930060000000    -0.789766000000    -1.221807000000     1.007825032230
         H            3.669445000000     0.562215000000    -1.658308000000     1.007825032230

  Charge       = 0
  Multiplicity = 1
  Basis Set: AUG-CC-PVTZ
    Blend: AUG-CC-PVTZ
  Basis Set: (AUG-CC-PVTZ AUX)
    Blend: AUG-CC-PVTZ-JKFIT

    Orbital Energies [Eh]
    ---------------------

    Doubly Occupied:

       1A    -20.580678     2A    -20.579947     3A    -20.569352
       4A    -20.567716     5A     -1.357510     6A     -1.350278
       7A     -1.349707     8A     -1.333573     9A     -0.737197
      10A     -0.721478    11A     -0.716636    12A     -0.711700
      13A     -0.589336    14A     -0.584857    15A     -0.581141
      16A     -0.560212    17A     -0.521977    18A     -0.516459
      19A     -0.510697    20A     -0.504752

  @DF-RHF Final Energy:  -304.22643905969267

   => Energetics <=

    Nuclear Repulsion Energy =            106.9274929444875113
    One-Electron Energy =                -632.4174517559940796
    Two-Electron Energy =                 221.2635197518138739
    Total Energy =                       -304.2264390596926660
 Dipole X            :        -70.7141748           70.6382782           -0.0758967
 Dipole Y            :         16.5368601          -15.2570799            1.2797801
 Dipole Z            :        -99.4370370           97.6158987           -1.8211383
 Magnitude           :                                                    2.2271377

    SAPT Results
  --------------------------------------------------------------------------------------------------------
    Electrostatics                -73.27271094 [mEh]     -45.97932029 [kcal/mol]    -192.37747608 [kJ/mol]
      Elst10,r                    -72.22455396 [mEh]     -45.32159185 [kcal/mol]    -189.62554031 [kJ/mol]
      Elst12,r                     -1.04815698 [mEh]      -0.65772843 [kcal/mol]      -2.75193577 [kJ/mol]

    Exchange                       73.80959310 [mEh]      46.31621893 [kcal/mol]     193.78706000 [kJ/mol]
      Exch10                       66.16856536 [mEh]      41.52140163 [kcal/mol]     173.72554441 [kJ/mol]
      Exch10(S^2)                  65.36739285 [mEh]      41.01865829 [kcal/mol]     171.62206630 [kJ/mol]
      Exch11(S^2)                   2.69259955 [mEh]       1.68963173 [kcal/mol]       7.06941915 [kJ/mol]
      Exch12(S^2)                   4.94842819 [mEh]       3.10518557 [kcal/mol]      12.99209643 [kJ/mol]

    Induction                     -31.05202793 [mEh]     -19.48544171 [kcal/mol]     -81.52708809 [kJ/mol]
      Ind20,r                     -56.13200758 [mEh]     -35.22336654 [kcal/mol]    -147.37456559 [kJ/mol]
      Ind22                        -7.72017339 [mEh]      -4.84448194 [kcal/mol]     -20.26931244 [kJ/mol]
      Exch-Ind20,r                 36.93847574 [mEh]      23.17924347 [kcal/mol]      96.98195469 [kJ/mol]
      Exch-Ind22                    5.08037125 [mEh]       3.18798109 [kcal/mol]      13.33851287 [kJ/mol]
      delta HF,r (2)               -9.21869395 [mEh]      -5.78481779 [kcal/mol]     -24.20367763 [kJ/mol]

    Dispersion                    -23.73175413 [mEh]     -14.89190054 [kcal/mol]     -62.30771188 [kJ/mol]
      Disp20                      -27.46502285 [mEh]     -17.23456204 [kcal/mol]     -72.10940756 [kJ/mol]
      Disp21                        1.94635137 [mEh]       1.22135393 [kcal/mol]       5.11014483 [kJ/mol]
      Disp22 (SDQ)                  0.01694152 [mEh]       0.01063096 [kcal/mol]       0.04447994 [kJ/mol]
      Disp22 (T)                   -4.28822427 [mEh]      -2.69090135 [kcal/mol]     -11.25873126 [kJ/mol]
      Est. Disp22 (T)              -4.89121234 [mEh]      -3.06928208 [kcal/mol]     -12.84187622 [kJ/mol]
      Exch-Disp20                   6.66118817 [mEh]       4.17995868 [kcal/mol]      17.48894713 [kJ/mol]

  Total HF                        -34.46821439 [mEh]     -21.62913108 [kcal/mol]     -90.49628443 [kJ/mol]
  Total SAPT0                     -55.27204908 [mEh]     -34.68373443 [kcal/mol]    -145.11674486 [kJ/mol]
  Total SAPT2                     -51.31898045 [mEh]     -32.20314642 [kcal/mol]    -134.73796461 [kJ/mol]
  Total SAPT2+                    -54.24689990 [mEh]     -34.04044361 [kcal/mol]    -142.42521605 [kJ/mol]

  Special recipe for scaled SAPT0 (see Manual):
    Electrostatics sSAPT0         -72.22455396 [mEh]     -45.32159185 [kcal/mol]    -189.62554031 [kJ/mol]
    Exchange sSAPT0                66.16856536 [mEh]      41.52140163 [kcal/mol]     173.72554441 [kJ/mol]
    Induction sSAPT0              -27.03730672 [mEh]     -16.96616611 [kcal/mol]     -70.98643902 [kJ/mol]
    Dispersion sSAPT0             -20.55589281 [mEh]     -12.89901748 [kcal/mol]     -53.96948915 [kJ/mol]
  Total sSAPT0                    -53.64918814 [mEh]     -33.66537382 [kcal/mol]    -140.85592406 [kJ/mol]
  --------------------------------------------------------------------------------------------------------

*** Psi4 exiting successfully. Buy a developer a beer!
