                               Psi4 1.8.2 release

  ==> Input File <==

--------------------------------------------------------------------------
MEMORY 60 GB

molecule dimer {
-1 1
Br     0.000000     0.000000     0.000000
--
0 1
O     -0.944159     0.763135    -3.171296
H     -0.418125     0.642488    -2.380292
H     -1.515592     1.518947    -2.946457
O      0.266373    -2.666671    -2.063433
H     -0.507967    -3.216325    -2.144357
H      0.169069    -1.929715    -1.427717
O      2.278924     0.586830    -2.040328
H      1.783721    -0.048625    -1.465647
H      2.356833     0.210882    -2.962479
O     -0.660034     3.338372    -0.252519
H     -0.523899     2.351649    -0.216782
H     -0.034580     3.514831    -0.970765

units ang
no_reorient
no_com
symmetry c1
}

set {
basis        aug-cc-pVTZ
scf_type     df
}

energy("sapt2+")
--------------------------------------------------------------------------

  //              Dimer HF             //
    Molecular point group: c1
  Charge       = -1
  Multiplicity = 1
  Basis Set: AUG-CC-PVTZ
    Blend: AUG-CC-PVTZ
  Basis Set: (AUG-CC-PVTZ AUX)
    Blend: AUG-CC-PVTZ-JKFIT
  @DF-RHF Final Energy: -2876.80434310827104
    Total Energy =                      -2876.8043431082714960
 Dipole X            :        -17.1973220           16.7019513           -0.4953707
 Dipole Y            :        -37.1281654           36.3157362           -0.8124292
 Dipole Z            :        142.4173930         -141.2288785            1.1885145
 Magnitude           :                                                    1.5224980
  //            Monomer A HF           //
    Molecular point group: c1
  Multiplicity = 1
  Basis Set: AUG-CC-PVTZ
    Blend: AUG-CC-PVTZ
  Basis Set: (AUG-CC-PVTZ AUX)
    Blend: AUG-CC-PVTZ-JKFIT
  @DF-RHF Final Energy: -2572.53372152066595
    Total Energy =                      -2572.5337215206664041
  //            Monomer B HF           //
    Molecular point group: c1

    Geometry (in Angstrom), charge = 0, multiplicity = 1:

       Center              X                  Y                   Z               Mass
    ------------   -----------------  -----------------  -----------------  -----------------
      Gh(BR)          0.000000000000     0.000000000000     0.000000000000    78.918337600000
         O           -0.944159000000     0.763135000000    -3.171296000000    15.994914619570
         H           -0.418125000000     0.642488000000    -2.380292000000     1.007825032230
         H           -1.515592000000     1.518947000000    -2.946457000000     1.007825032230
         O            0.266373000000    -2.666671000000    -2.063433000000    15.994914619570
         H           -0.507967000000    -3.216325000000    -2.144357000000     1.007825032230
         H            0.169069000000    -1.929715000000    -1.427717000000     1.007825032230
         O            2.278924000000     0.586830000000    -2.040328000000    15.994914619570
         H            1.783721000000    -0.048625000000    -1.465647000000     1.007825032230
         H            2.356833000000     0.210882000000    -2.962479000000     1.007825032230
         O           -0.660034000000     3.338372000000    -0.252519000000    15.994914619570
         H           -0.523899000000     2.351649000000    -0.216782000000     1.007825032230
         H           -0.034580000000     3.514831000000    -0.970765000000     1.007825032230

  Charge       = 0
  Multiplicity = 1
  Basis Set: AUG-CC-PVTZ
    Blend: AUG-CC-PVTZ
  Basis Set: (AUG-CC-PVTZ AUX)
    Blend: AUG-CC-PVTZ-JKFIT

    Orbital Energies [Eh]
    ---------------------

    Doubly Occupied:

       1A    -20.587109     2A    -20.584439     3A    -20.579889
       4A    -20.577727     5A     -1.359683     6A     -1.358648
       7A     -1.355895     8A     -1.348440     9A     -0.747989
      10A     -0.723669    11A     -0.719463    12A     -0.698729
      13A     -0.605676    14A     -0.593397    15A     -0.585052
      16A     -0.580435    17A     -0.526095    18A     -0.522786
      19A     -0.520126    20A     -0.514708

  @DF-RHF Final Energy:  -304.22575828327871

   => Energetics <=

    Nuclear Repulsion Energy =            114.8787457839106878
    One-Electron Energy =                -648.0290886334820470
    Two-Electron Energy =                 228.9245845662926797
    Total Energy =                       -304.2257582832787648
 Dipole X            :        -17.0583620           16.7019513           -0.3564107
 Dipole Y            :        -36.9717041           36.3157362           -0.6559679
 Dipole Z            :        141.4953294         -141.2288785            0.2664509
 Magnitude           :                                                    0.7926655

    SAPT Results
  --------------------------------------------------------------------------------------------------------
    Electrostatics                -82.07909645 [mEh]     -51.50541062 [kcal/mol]    -215.49863803 [kJ/mol]
      Elst10,r                    -81.30833313 [mEh]     -51.02174934 [kcal/mol]    -213.47499922 [kJ/mol]
      Elst12,r                     -0.77076332 [mEh]      -0.48366128 [kcal/mol]      -2.02363881 [kJ/mol]

    Exchange                       73.53856483 [mEh]      46.14614612 [kcal/mol]     193.07547536 [kJ/mol]
      Exch10                       65.83910094 [mEh]      41.31465959 [kcal/mol]     172.86053571 [kJ/mol]
      Exch10(S^2)                  64.84424891 [mEh]      40.69038051 [kcal/mol]     170.24855205 [kJ/mol]
      Exch11(S^2)                   2.75050651 [mEh]       1.72596890 [kcal/mol]       7.22145386 [kJ/mol]
      Exch12(S^2)                   4.94895737 [mEh]       3.10551764 [kcal/mol]      12.99348579 [kJ/mol]

    Induction                     -32.07875266 [mEh]     -20.12972120 [kcal/mol]     -84.22275350 [kJ/mol]
      Ind20,r                     -56.38770054 [mEh]     -35.38381629 [kcal/mol]    -148.04588737 [kJ/mol]
      Ind22                        -7.44908483 [mEh]      -4.67437130 [kcal/mol]     -19.55756951 [kJ/mol]
      Exch-Ind20,r                 36.06534355 [mEh]      22.63134475 [kcal/mol]      94.68954645 [kJ/mol]
      Exch-Ind22                    4.76440431 [mEh]       2.98970884 [kcal/mol]      12.50894179 [kJ/mol]
      delta HF,r (2)               -9.07171515 [mEh]      -5.69258720 [kcal/mol]     -23.81778485 [kJ/mol]

    Dispersion                    -24.67416791 [mEh]     -15.48327412 [kcal/mol]     -64.78201893 [kJ/mol]
      Disp20                      -28.57919489 [mEh]     -17.93371554 [kcal/mol]     -75.03466584 [kJ/mol]
      Disp21                        2.21692536 [mEh]       1.39114166 [kcal/mol]       5.82053673 [kJ/mol]
      Disp22 (SDQ)                 -0.02158043 [mEh]      -0.01354193 [kcal/mol]      -0.05665942 [kJ/mol]
      Disp22 (T)                   -4.51830392 [mEh]      -2.83527851 [kcal/mol]     -11.86280530 [kJ/mol]
      Est. Disp22 (T)              -5.13895852 [mEh]      -3.22474516 [kcal/mol]     -13.49233374 [kJ/mol]
      Exch-Disp20                   6.84864057 [mEh]       4.29758684 [kcal/mol]      17.98110334 [kJ/mol]

  Total HF                        -44.86330433 [mEh]     -28.15214849 [kcal/mol]    -117.78858928 [kJ/mol]
  Total SAPT0                     -66.59385864 [mEh]     -41.78827719 [kcal/mol]    -174.84215178 [kJ/mol]
  Total SAPT2                     -62.34983859 [mEh]     -39.12511440 [kcal/mol]    -163.69947866 [kJ/mol]
  Total SAPT2+                    -65.29345218 [mEh]     -40.97225982 [kcal/mol]    -171.42793509 [kJ/mol]

  Special recipe for scaled SAPT0 (see Manual):
    Electrostatics sSAPT0         -81.30833313 [mEh]     -51.02174934 [kcal/mol]    -213.47499922 [kJ/mol]
    Exchange sSAPT0                65.83910094 [mEh]      41.31465959 [kcal/mol]     172.86053571 [kJ/mol]
    Induction sSAPT0              -27.70851164 [mEh]     -17.38735356 [kcal/mol]     -72.74868730 [kJ/mol]
    Dispersion sSAPT0             -21.41047424 [mEh]     -13.43527542 [kcal/mol]     -56.21319237 [kJ/mol]
  Total sSAPT0                    -64.58821807 [mEh]     -40.52971873 [kcal/mol]    -169.57634318 [kJ/mol]
  --------------------------------------------------------------------------------------------------------

*** Psi4 exiting successfully. Buy a developer a beer!
