                               Psi4 1.8.2 release

  ==> Input File <==

--------------------------------------------------------------------------
MEMORY 60 GB

molecule dimer {
-1 1
Br     0.000000     0.000000     0.000000
--
0 1
O     -1.840831    -1.774050     1.834568
H     -1.901929    -2.503854     1.228639
H     -1.270653    -1.166530     1.322161
O      1.154957    -1.856330     2.510722
H      0.297931    -2.172747     2.763830
H      1.068259    -1.392424     1.661516
O      3.348506    -0.225290    -1.030075
H      2.446439    -0.034057    -0.715322
H      3.503325    -1.124527    -0.914376
O     -1.970296     2.489958    -0.789570
H     -2.695508     3.100915    -1.071316
H     -1.197742     2.647194    -1.321328
O      0.086673    -3.010722    -1.445107
H      0.037079    -2.054659    -1.152701
H      0.257774    -2.926956    -2.402717

units ang
no_reorient
no_com
symmetry c1
}

set {
basis        aug-cc-pVTZ
scf_type     df
}

energy("sapt2+")
--------------------------------------------------------------------------

  //              Dimer HF             //
    Molecular point group: c1
  Charge       = -1
  Multiplicity = 1
  Basis Set: AUG-CC-PVTZ
    Blend: AUG-CC-PVTZ
  Basis Set: (AUG-CC-PVTZ AUX)
    Blend: AUG-CC-PVTZ-JKFIT
  @DF-RHF Final Energy: -2952.86830020061598
    Total Energy =                      -2952.8683002006164315
 Dipole X            :        -13.8094681           12.8067628           -1.0027053
 Dipole Y            :         82.1384139          -80.5762534            1.5621606
 Dipole Z            :        -17.0944095           15.1984814           -1.8959281
 Magnitude           :                                                    2.6533577
  //            Monomer A HF           //
    Molecular point group: c1
  Multiplicity = 1
  Basis Set: AUG-CC-PVTZ
    Blend: AUG-CC-PVTZ
  Basis Set: (AUG-CC-PVTZ AUX)
    Blend: AUG-CC-PVTZ-JKFIT
  @DF-RHF Final Energy: -2572.53373034561582
    Total Energy =                      -2572.5337303456153677
  //            Monomer B HF           //
    Molecular point group: c1

    Geometry (in Angstrom), charge = 0, multiplicity = 1:

       Center              X                  Y                   Z               Mass
    ------------   -----------------  -----------------  -----------------  -----------------
      Gh(BR)          0.000000000000     0.000000000000     0.000000000000    78.918337600000
         O           -1.840831000000    -1.774050000000     1.834568000000    15.994914619570
         H           -1.901929000000    -2.503854000000     1.228639000000     1.007825032230
         H           -1.270653000000    -1.166530000000     1.322161000000     1.007825032230
         O            1.154957000000    -1.856330000000     2.510722000000    15.994914619570
         H            0.297931000000    -2.172747000000     2.763830000000     1.007825032230
         H            1.068259000000    -1.392424000000     1.661516000000     1.007825032230
         O            3.348506000000    -0.225290000000    -1.030075000000    15.994914619570
         H            2.446439000000    -0.034057000000    -0.715322000000     1.007825032230
         H            3.503325000000    -1.124527000000    -0.914376000000     1.007825032230
         O           -1.970296000000     2.489958000000    -0.789570000000    15.994914619570
         H           -2.695508000000     3.100915000000    -1.071316000000     1.007825032230
         H           -1.197742000000     2.647194000000    -1.321328000000     1.007825032230
         O            0.086673000000    -3.010722000000    -1.445107000000    15.994914619570
         H            0.037079000000    -2.054659000000    -1.152701000000     1.007825032230
         H            0.257774000000    -2.926956000000    -2.402717000000     1.007825032230

  Charge       = 0
  Multiplicity = 1
  Basis Set: AUG-CC-PVTZ
    Blend: AUG-CC-PVTZ
  Basis Set: (AUG-CC-PVTZ AUX)
    Blend: AUG-CC-PVTZ-JKFIT

    Orbital Energies [Eh]
    ---------------------

    Doubly Occupied:

       1A    -20.598061     2A    -20.584982     3A    -20.581440
       4A    -20.575918     5A    -20.561272     6A     -1.369973
       7A     -1.369193     8A     -1.363977     9A     -1.358529
      10A     -1.345889    11A     -0.742234    12A     -0.734710
      13A     -0.722576    14A     -0.721803    15A     -0.720037
      16A     -0.607640    17A     -0.606984    18A     -0.591755
      19A     -0.587806    20A     -0.579100    21A     -0.532995
      22A     -0.522895    23A     -0.522425    24A     -0.522026
      25A     -0.505126

  @DF-RHF Final Energy:  -380.29087390343261

   => Energetics <=

    Nuclear Repulsion Energy =            160.0728338581640458
    One-Electron Energy =                -842.8687188521288363
    Two-Electron Energy =                 302.5050110905322072
    Total Energy =                       -380.2908739034326118
 Dipole X            :        -13.5729495           12.8067628           -0.7661868
 Dipole Y            :         81.2255164          -80.5762534            0.6492630
 Dipole Z            :        -17.0190865           15.1984814           -1.8206051
 Magnitude           :                                                    2.0792276

    SAPT Results
  --------------------------------------------------------------------------------------------------------
    Electrostatics                -89.28419816 [mEh]     -56.02668020 [kcal/mol]    -234.41562997 [kJ/mol]
      Elst10,r                    -87.37024685 [mEh]     -54.82565762 [kcal/mol]    -229.39055150 [kJ/mol]
      Elst12,r                     -1.91395131 [mEh]      -1.20102258 [kcal/mol]      -5.02507848 [kJ/mol]

    Exchange                       89.21068533 [mEh]      55.98055021 [kcal/mol]     234.22262207 [kJ/mol]
      Exch10                       79.83031731 [mEh]      50.09428041 [kcal/mol]     209.59446923 [kJ/mol]
      Exch10(S^2)                  78.61369466 [mEh]      49.33083817 [kcal/mol]     206.40022691 [kJ/mol]
      Exch11(S^2)                   3.34892368 [mEh]       2.10148134 [kcal/mol]       8.79259792 [kJ/mol]
      Exch12(S^2)                   6.03144434 [mEh]       3.78478846 [kcal/mol]      15.83555492 [kJ/mol]

    Induction                     -39.49596840 [mEh]     -24.78409435 [kcal/mol]    -103.69665075 [kJ/mol]
      Ind20,r                     -69.85925370 [mEh]     -43.83734353 [kcal/mol]    -183.41544532 [kJ/mol]
      Ind22                        -8.94818330 [mEh]      -5.61506979 [kcal/mol]     -23.49345201 [kJ/mol]
      Exch-Ind20,r                 43.78399877 [mEh]      27.47487403 [kcal/mol]     114.95487293 [kJ/mol]
      Exch-Ind22                    5.60823693 [mEh]       3.51922180 [kcal/mol]      14.72442403 [kJ/mol]
      delta HF,r (2)              -10.08076710 [mEh]      -6.32577686 [kcal/mol]     -26.46705038 [kJ/mol]

    Dispersion                    -29.98579723 [mEh]     -18.81637184 [kcal/mol]     -78.72769979 [kJ/mol]
      Disp20                      -34.56226785 [mEh]     -21.68815051 [kcal/mol]     -90.74322174 [kJ/mol]
      Disp21                        2.63702139 [mEh]       1.65475590 [kcal/mol]       6.92349870 [kJ/mol]
      Disp22 (SDQ)                 -0.02542348 [mEh]      -0.01595347 [kcal/mol]      -0.06674933 [kJ/mol]
      Disp22 (T)                   -5.41652611 [mEh]      -3.39892145 [kcal/mol]     -14.22108735 [kJ/mol]
      Est. Disp22 (T)              -6.18443314 [mEh]      -3.88079039 [kcal/mol]     -16.23722697 [kJ/mol]
      Exch-Disp20                   8.14930585 [mEh]       5.11376662 [kcal/mol]      21.39599955 [kJ/mol]

  Total HF                        -43.69595157 [mEh]     -27.41962357 [kcal/mol]    -114.72370504 [kJ/mol]
  Total SAPT0                     -70.10891357 [mEh]     -43.99400746 [kcal/mol]    -184.07092723 [kJ/mol]
  Total SAPT2                     -65.98244323 [mEh]     -41.40460823 [kcal/mol]    -173.23688084 [kJ/mol]
  Total SAPT2+                    -69.55527846 [mEh]     -43.64659619 [kcal/mol]    -182.61735844 [kJ/mol]

  Special recipe for scaled SAPT0 (see Manual):
    Electrostatics sSAPT0         -87.37024685 [mEh]     -54.82565762 [kcal/mol]    -229.39055150 [kJ/mol]
    Exchange sSAPT0                79.83031731 [mEh]      50.09428041 [kcal/mol]     209.59446923 [kJ/mol]
    Induction sSAPT0              -34.09160156 [mEh]     -21.39280296 [kcal/mol]     -89.50748757 [kJ/mol]
    Dispersion sSAPT0             -26.02872132 [mEh]     -16.33326922 [kcal/mol]     -68.33839840 [kJ/mol]
  Total sSAPT0                    -67.66025241 [mEh]     -42.45744939 [kcal/mol]    -177.64196823 [kJ/mol]
  --------------------------------------------------------------------------------------------------------

*** Psi4 exiting successfully. Buy a developer a beer!
