                               Psi4 1.8.2 release

  ==> Input File <==

--------------------------------------------------------------------------
MEMORY 60 GB

molecule dimer {
-1 1
Br     0.000000     0.000000     0.000000
--
0 1
O      1.331716     2.722509     0.940794
H      0.932553     1.903811     0.578732
H      1.260918     3.403207     0.208378
O     -1.448453     1.321538     2.668376
H     -1.342868     0.760752     1.897082
H     -0.736737     1.048426     3.235516
O     -0.072527    -0.400216    -3.431422
H      0.021822    -0.469284    -2.499082
H      0.767355    -0.131810    -3.808652
O      3.075394     0.425946     1.413502
H      2.911921     1.297669     1.072376
H      2.314786    -0.184850     1.323914
O      2.532006     0.388678    -2.263516
H      2.071157     0.512868    -1.472168
H      2.383790     1.130998    -2.871000

units ang
no_reorient
no_com
symmetry c1
}

set {
basis        aug-cc-pVTZ
scf_type     df
}

energy("sapt2+")
--------------------------------------------------------------------------

  //              Dimer HF             //
    Molecular point group: c1
  Charge       = -1
  Multiplicity = 1
  Basis Set: AUG-CC-PVTZ
    Blend: AUG-CC-PVTZ
  Basis Set: (AUG-CC-PVTZ AUX)
    Blend: AUG-CC-PVTZ-JKFIT
  @DF-RHF Final Energy: -2952.87451258797455
    Total Energy =                      -2952.8745125879745501
 Dipole X            :       -102.5819104          101.9125237           -0.6693868
 Dipole Y            :        -85.1116809           84.9232093           -0.1884717
 Dipole Z            :         13.9897448          -14.5755181           -0.5857733
 Magnitude           :                                                    0.9092473
  //            Monomer A HF           //
    Molecular point group: c1
  Multiplicity = 1
  Basis Set: AUG-CC-PVTZ
    Blend: AUG-CC-PVTZ
  Basis Set: (AUG-CC-PVTZ AUX)
    Blend: AUG-CC-PVTZ-JKFIT
  @DF-RHF Final Energy: -2572.53372961612558
    Total Energy =                      -2572.5337296161255836
  //            Monomer B HF           //
    Molecular point group: c1

    Geometry (in Angstrom), charge = 0, multiplicity = 1:

       Center              X                  Y                   Z               Mass
    ------------   -----------------  -----------------  -----------------  -----------------
      Gh(BR)          0.000000000000     0.000000000000     0.000000000000    78.918337600000
         O            1.331716000000     2.722509000000     0.940794000000    15.994914619570
         H            0.932553000000     1.903811000000     0.578732000000     1.007825032230
         H            1.260918000000     3.403207000000     0.208378000000     1.007825032230
         O           -1.448453000000     1.321538000000     2.668376000000    15.994914619570
         H           -1.342868000000     0.760752000000     1.897082000000     1.007825032230
         H           -0.736737000000     1.048426000000     3.235516000000     1.007825032230
         O           -0.072527000000    -0.400216000000    -3.431422000000    15.994914619570
         H            0.021822000000    -0.469284000000    -2.499082000000     1.007825032230
         H            0.767355000000    -0.131810000000    -3.808652000000     1.007825032230
         O            3.075394000000     0.425946000000     1.413502000000    15.994914619570
         H            2.911921000000     1.297669000000     1.072376000000     1.007825032230
         H            2.314786000000    -0.184850000000     1.323914000000     1.007825032230
         O            2.532006000000     0.388678000000    -2.263516000000    15.994914619570
         H            2.071157000000     0.512868000000    -1.472168000000     1.007825032230
         H            2.383790000000     1.130998000000    -2.871000000000     1.007825032230

  Charge       = 0
  Multiplicity = 1
  Basis Set: AUG-CC-PVTZ
    Blend: AUG-CC-PVTZ
  Basis Set: (AUG-CC-PVTZ AUX)
    Blend: AUG-CC-PVTZ-JKFIT

    Orbital Energies [Eh]
    ---------------------

    Doubly Occupied:

       1A    -20.607693     2A    -20.592753     3A    -20.577063
       4A    -20.566400     5A    -20.566386     6A     -1.387957
       7A     -1.374503     8A     -1.365630     9A     -1.358053
      10A     -1.347320    11A     -0.769154    12A     -0.743921
      13A     -0.734003    14A     -0.731560    15A     -0.726459
      16A     -0.613174    17A     -0.604861    18A     -0.597210
      19A     -0.591819    20A     -0.575539    21A     -0.538848
      22A     -0.533493    23A     -0.519238    24A     -0.513292
      25A     -0.509798

  @DF-RHF Final Energy:  -380.28464506987990

   => Energetics <=

    Nuclear Repulsion Energy =            172.5988272730837991
    One-Electron Energy =                -867.6746856440861393
    Two-Electron Energy =                 314.7912133011224682
    Total Energy =                       -380.2846450698799003
 Dipole X            :       -102.0050347          101.9125237           -0.0925110
 Dipole Y            :        -84.4897944           84.9232093            0.4334149
 Dipole Z            :         14.0244536          -14.5755181           -0.5510645
 Magnitude           :                                                    0.7071625

    SAPT Results
  --------------------------------------------------------------------------------------------------------
    Electrostatics                -99.63310028 [mEh]     -62.52071433 [kcal/mol]    -261.58666875 [kJ/mol]
      Elst10,r                    -99.07995154 [mEh]     -62.17360826 [kcal/mol]    -260.13437694 [kJ/mol]
      Elst12,r                     -0.55314874 [mEh]      -0.34710607 [kcal/mol]      -1.45229181 [kJ/mol]

    Exchange                       81.91636149 [mEh]      51.40329289 [kcal/mol]     215.07137745 [kJ/mol]
      Exch10                       72.87814804 [mEh]      45.73172833 [kcal/mol]     191.34155133 [kJ/mol]
      Exch10(S^2)                  71.70741498 [mEh]      44.99708224 [kcal/mol]     188.26779210 [kJ/mol]
      Exch11(S^2)                   3.26369339 [mEh]       2.04799852 [kcal/mol]       8.56882581 [kJ/mol]
      Exch12(S^2)                   5.77452005 [mEh]       3.62356604 [kcal/mol]      15.16100031 [kJ/mol]

    Induction                     -33.03634934 [mEh]     -20.73062219 [kcal/mol]     -86.73692325 [kJ/mol]
      Ind20,r                     -62.28005121 [mEh]     -39.08132216 [kcal/mol]    -163.51625192 [kJ/mol]
      Ind22                        -8.89423689 [mEh]      -5.58121791 [kcal/mol]     -23.35181574 [kJ/mol]
      Exch-Ind20,r                 40.57118674 [mEh]      25.45880404 [kcal/mol]     106.51963610 [kJ/mol]
      Exch-Ind22                    5.79398602 [mEh]       3.63578112 [kcal/mol]      15.21210819 [kJ/mol]
      delta HF,r (2)               -8.22723400 [mEh]      -5.16266728 [kcal/mol]     -21.60059988 [kJ/mol]

    Dispersion                    -28.49036618 [mEh]     -17.87797469 [kcal/mol]     -74.80144609 [kJ/mol]
      Disp20                      -32.75192194 [mEh]     -20.55214130 [kcal/mol]     -85.99015921 [kJ/mol]
      Disp21                        2.47307512 [mEh]       1.55187807 [kcal/mol]       6.49305783 [kJ/mol]
      Disp22 (SDQ)                 -0.11937296 [mEh]      -0.07490766 [kcal/mol]      -0.31341366 [kJ/mol]
      Disp22 (T)                   -5.19102389 [mEh]      -3.25741667 [kcal/mol]     -13.62903134 [kJ/mol]
      Est. Disp22 (T)              -5.93352008 [mEh]      -3.72334006 [kcal/mol]     -15.57845483 [kJ/mol]
      Exch-Disp20                   7.84137369 [mEh]       4.92053628 [kcal/mol]      20.58752378 [kJ/mol]

  Total HF                        -56.13790197 [mEh]     -35.22706532 [kcal/mol]    -147.39004131 [kJ/mol]
  Total SAPT0                     -81.04845022 [mEh]     -50.85867035 [kcal/mol]    -212.79267674 [kJ/mol]
  Total SAPT2                     -75.66363639 [mEh]     -47.47964866 [kcal/mol]    -198.65484998 [kJ/mol]
  Total SAPT2+                    -79.24345431 [mEh]     -49.72601832 [kcal/mol]    -208.05366064 [kJ/mol]

  Special recipe for scaled SAPT0 (see Manual):
    Electrostatics sSAPT0         -99.07995154 [mEh]     -62.17360826 [kcal/mol]    -260.13437694 [kJ/mol]
    Exchange sSAPT0                72.87814804 [mEh]      45.73172833 [kcal/mol]     191.34155133 [kJ/mol]
    Induction sSAPT0              -27.91631874 [mEh]     -17.51775448 [kcal/mol]     -73.29428475 [kJ/mol]
    Dispersion sSAPT0             -24.52017644 [mEh]     -15.38664302 [kcal/mol]     -64.37771438 [kJ/mol]
  Total sSAPT0                    -78.63829868 [mEh]     -49.34627743 [kcal/mol]    -206.46482475 [kJ/mol]
  --------------------------------------------------------------------------------------------------------

*** Psi4 exiting successfully. Buy a developer a beer!
