                               Psi4 1.8.2 release

  ==> Input File <==

--------------------------------------------------------------------------
MEMORY 60 GB

molecule dimer {
-1 1
Br     0.000000     0.000000     0.000000
--
0 1
O     -2.482245     0.431698    -2.183327
H     -1.655939     0.265964    -1.667076
H     -3.230451     0.292324    -1.603838
O      0.162468     2.602185    -2.062760
H      0.057853     1.916729    -1.447029
H      0.378926     2.126170    -2.867373
O      2.925195     1.607543     0.753982
H      3.427561     1.760867    -0.069839
H      2.058998     1.436778     0.427908
O      2.391839    -0.819196    -2.219117
H      1.654438    -0.575889    -1.629627
H      1.934968    -1.167604    -3.010764

units ang
no_reorient
no_com
symmetry c1
}

set {
basis        aug-cc-pVTZ
scf_type     df
}

energy("sapt2+")
--------------------------------------------------------------------------

  //              Dimer HF             //
    Molecular point group: c1
  Charge       = -1
  Multiplicity = 1
  Basis Set: AUG-CC-PVTZ
    Blend: AUG-CC-PVTZ
  Basis Set: (AUG-CC-PVTZ AUX)
    Blend: AUG-CC-PVTZ-JKFIT
  @DF-RHF Final Energy: -2876.81588867204573
    Total Energy =                      -2876.8158886720457303
 Dipole X            :        -55.1570290           54.0545009           -1.1025282
 Dipole Y            :        -70.6303384           69.2266754           -1.4036629
 Dipole Z            :        109.2915166         -108.7677489            0.5237676
 Magnitude           :                                                    1.8601534
  //            Monomer A HF           //
    Molecular point group: c1
  Multiplicity = 1
  Basis Set: AUG-CC-PVTZ
    Blend: AUG-CC-PVTZ
  Basis Set: (AUG-CC-PVTZ AUX)
    Blend: AUG-CC-PVTZ-JKFIT
  @DF-RHF Final Energy: -2572.53372169766590
    Total Energy =                      -2572.5337216976658965
  //            Monomer B HF           //
    Molecular point group: c1

    Geometry (in Angstrom), charge = 0, multiplicity = 1:

       Center              X                  Y                   Z               Mass
    ------------   -----------------  -----------------  -----------------  -----------------
      Gh(BR)          0.000000000000     0.000000000000     0.000000000000    78.918337600000
         O           -2.482245000000     0.431698000000    -2.183327000000    15.994914619570
         H           -1.655939000000     0.265964000000    -1.667076000000     1.007825032230
         H           -3.230451000000     0.292324000000    -1.603838000000     1.007825032230
         O            0.162468000000     2.602185000000    -2.062760000000    15.994914619570
         H            0.057853000000     1.916729000000    -1.447029000000     1.007825032230
         H            0.378926000000     2.126170000000    -2.867373000000     1.007825032230
         O            2.925195000000     1.607543000000     0.753982000000    15.994914619570
         H            3.427561000000     1.760867000000    -0.069839000000     1.007825032230
         H            2.058998000000     1.436778000000     0.427908000000     1.007825032230
         O            2.391839000000    -0.819196000000    -2.219117000000    15.994914619570
         H            1.654438000000    -0.575889000000    -1.629627000000     1.007825032230
         H            1.934968000000    -1.167604000000    -3.010764000000     1.007825032230

  Charge       = 0
  Multiplicity = 1
  Basis Set: AUG-CC-PVTZ
    Blend: AUG-CC-PVTZ
  Basis Set: (AUG-CC-PVTZ AUX)
    Blend: AUG-CC-PVTZ-JKFIT

    Orbital Energies [Eh]
    ---------------------

    Doubly Occupied:

       1A    -20.593728     2A    -20.586855     3A    -20.580433
       4A    -20.568849     5A     -1.377998     6A     -1.367215
       7A     -1.362229     8A     -1.355159     9A     -0.739348
      10A     -0.733688    11A     -0.726892    12A     -0.712762
      13A     -0.607398    14A     -0.604131    15A     -0.592944
      16A     -0.589640    17A     -0.532609    18A     -0.530436
      19A     -0.521034    20A     -0.511119

  @DF-RHF Final Energy:  -304.22972449016851

   => Energetics <=

    Nuclear Repulsion Energy =            112.3686353275891889
    One-Electron Energy =                -642.8077830194712305
    Two-Electron Energy =                 226.2094232017134914
    Total Energy =                       -304.2297244901685076
 Dipole X            :        -54.9667956           54.0545009           -0.9122947
 Dipole Y            :        -70.2404660           69.2266754           -1.0137906
 Dipole Z            :        108.4040262         -108.7677489           -0.3637227
 Magnitude           :                                                    1.4115053

    SAPT Results
  --------------------------------------------------------------------------------------------------------
    Electrostatics                -83.33701522 [mEh]     -52.29476657 [kcal/mol]    -218.80130331 [kJ/mol]
      Elst10,r                    -83.16782632 [mEh]     -52.18859893 [kcal/mol]    -218.35709792 [kJ/mol]
      Elst12,r                     -0.16918890 [mEh]      -0.10616764 [kcal/mol]      -0.44420539 [kJ/mol]

    Exchange                       66.87195959 [mEh]      41.96278817 [kcal/mol]     175.57230571 [kJ/mol]
      Exch10                       59.73546647 [mEh]      37.48457113 [kcal/mol]     156.83544561 [kJ/mol]
      Exch10(S^2)                  59.00142450 [mEh]      37.02395284 [kcal/mol]     154.90821868 [kJ/mol]
      Exch11(S^2)                   2.59499002 [mEh]       1.62838082 [kcal/mol]       6.81314537 [kJ/mol]
      Exch12(S^2)                   4.54150309 [mEh]       2.84983622 [kcal/mol]      11.92371473 [kJ/mol]

    Induction                     -31.59219026 [mEh]     -19.82439868 [kcal/mol]     -82.94528409 [kJ/mol]
      Ind20,r                     -52.70364304 [mEh]     -33.07203531 [kcal/mol]    -138.37339573 [kJ/mol]
      Ind22                        -6.72613335 [mEh]      -4.22071240 [kcal/mol]     -17.65946067 [kJ/mol]
      Exch-Ind20,r                 32.47147216 [mEh]      20.37615641 [kcal/mol]      85.25383841 [kJ/mol]
      Exch-Ind22                    4.14406745 [mEh]       2.60044159 [kcal/mol]      10.88024760 [kJ/mol]
      delta HF,r (2)               -8.77795349 [mEh]      -5.50824897 [kcal/mol]     -23.04651370 [kJ/mol]

    Dispersion                    -23.29453214 [mEh]     -14.61753961 [kcal/mol]     -61.15978571 [kJ/mol]
      Disp20                      -26.55001208 [mEh]     -16.66038411 [kcal/mol]     -69.70704710 [kJ/mol]
      Disp21                        1.88741154 [mEh]       1.18436862 [kcal/mol]       4.95539831 [kJ/mol]
      Disp22 (SDQ)                 -0.05073544 [mEh]      -0.03183697 [kcal/mol]      -0.13320588 [kJ/mol]
      Disp22 (T)                   -4.18754781 [mEh]      -2.62772592 [kcal/mol]     -10.99440526 [kJ/mol]
      Est. Disp22 (T)              -4.78583234 [mEh]      -3.00315514 [kcal/mol]     -12.56520109 [kJ/mol]
      Exch-Disp20                   6.20463619 [mEh]       3.89346799 [kcal/mol]      16.29027006 [kJ/mol]

  Total HF                        -52.44248421 [mEh]     -32.90815567 [kcal/mol]    -137.68772333 [kJ/mol]
  Total SAPT0                     -72.78786010 [mEh]     -45.67507179 [kcal/mol]    -191.10450037 [kJ/mol]
  Total SAPT2                     -68.40262178 [mEh]     -42.92329320 [kcal/mol]    -179.59105874 [kJ/mol]
  Total SAPT2+                    -71.35177803 [mEh]     -44.77391668 [kcal/mol]    -187.33406740 [kJ/mol]

  Special recipe for scaled SAPT0 (see Manual):
    Electrostatics sSAPT0         -83.16782632 [mEh]     -52.18859893 [kcal/mol]    -218.35709792 [kJ/mol]
    Exchange sSAPT0                59.73546647 [mEh]      37.48457113 [kcal/mol]     156.83544561 [kJ/mol]
    Induction sSAPT0              -27.78304254 [mEh]     -17.43412241 [kcal/mol]     -72.94436814 [kJ/mol]
    Dispersion sSAPT0             -20.11090558 [mEh]     -12.61978378 [kcal/mol]     -52.80117532 [kJ/mol]
  Total sSAPT0                    -71.32630797 [mEh]     -44.75793398 [kcal/mol]    -187.26719577 [kJ/mol]
  --------------------------------------------------------------------------------------------------------

*** Psi4 exiting successfully. Buy a developer a beer!
