                               Psi4 1.8.2 release

  ==> Input File <==

--------------------------------------------------------------------------
MEMORY 60 GB

molecule dimer {
-1 1
Br     0.000000     0.000000     0.000000
--
0 1
O      0.936162     3.028793    -0.863611
H      0.135253     3.528226    -1.165330
H      0.572521     2.216892    -0.482163
O     -1.364496     1.694909     2.400741
H     -0.940522     1.130278     1.692609
H     -1.147774     2.625449     2.143951
O     -2.003382    -2.394680     1.418725
H     -1.477915    -3.075593     1.809731
H     -1.317858    -1.699563     1.204630
O      3.353864     0.790785     0.363253
H      3.773818     0.759128    -0.518565
H      2.429244     0.812169     0.202249

units ang
no_reorient
no_com
symmetry c1
}

set {
basis        aug-cc-pVTZ
scf_type     df
}

energy("sapt2+")
--------------------------------------------------------------------------

  //              Dimer HF             //
    Molecular point group: c1
  Charge       = -1
  Multiplicity = 1
  Basis Set: AUG-CC-PVTZ
    Blend: AUG-CC-PVTZ
  Basis Set: (AUG-CC-PVTZ AUX)
    Blend: AUG-CC-PVTZ-JKFIT
  @DF-RHF Final Energy: -2876.80856980526096
    Total Energy =                      -2876.8085698052609587
 Dipole X            :        -17.6633521           17.7708919            0.1075398
 Dipole Y            :        -59.5097411           59.0642253           -0.4455158
 Dipole Z            :        -60.9749654           59.4129440           -1.5620214
 Magnitude           :                                                    1.6278697
  //            Monomer A HF           //
    Molecular point group: c1
  Multiplicity = 1
  Basis Set: AUG-CC-PVTZ
    Blend: AUG-CC-PVTZ
  Basis Set: (AUG-CC-PVTZ AUX)
    Blend: AUG-CC-PVTZ-JKFIT
  @DF-RHF Final Energy: -2572.53372142744229
    Total Energy =                      -2572.5337214274422877
  //            Monomer B HF           //
    Molecular point group: c1

    Geometry (in Angstrom), charge = 0, multiplicity = 1:

       Center              X                  Y                   Z               Mass
    ------------   -----------------  -----------------  -----------------  -----------------
      Gh(BR)          0.000000000000     0.000000000000     0.000000000000    78.918337600000
         O            0.936162000000     3.028793000000    -0.863611000000    15.994914619570
         H            0.135253000000     3.528226000000    -1.165330000000     1.007825032230
         H            0.572521000000     2.216892000000    -0.482163000000     1.007825032230
         O           -1.364496000000     1.694909000000     2.400741000000    15.994914619570
         H           -0.940522000000     1.130278000000     1.692609000000     1.007825032230
         H           -1.147774000000     2.625449000000     2.143951000000     1.007825032230
         O           -2.003382000000    -2.394680000000     1.418725000000    15.994914619570
         H           -1.477915000000    -3.075593000000     1.809731000000     1.007825032230
         H           -1.317858000000    -1.699563000000     1.204630000000     1.007825032230
         O            3.353864000000     0.790785000000     0.363253000000    15.994914619570
         H            3.773818000000     0.759128000000    -0.518565000000     1.007825032230
         H            2.429244000000     0.812169000000     0.202249000000     1.007825032230

  Charge       = 0
  Multiplicity = 1
  Basis Set: AUG-CC-PVTZ
    Blend: AUG-CC-PVTZ
  Basis Set: (AUG-CC-PVTZ AUX)
    Blend: AUG-CC-PVTZ-JKFIT

    Orbital Energies [Eh]
    ---------------------

    Doubly Occupied:

       1A    -20.595789     2A    -20.587959     3A    -20.576877
       4A    -20.571326     5A     -1.367699     6A     -1.357343
       7A     -1.354364     8A     -1.349015     9A     -0.732407
      10A     -0.722282    11A     -0.713650    12A     -0.710181
      13A     -0.606076    14A     -0.592263    15A     -0.590178
      16A     -0.586756    17A     -0.532847    18A     -0.520909
      19A     -0.515669    20A     -0.514270

  @DF-RHF Final Energy:  -304.22468217179124

   => Energetics <=

    Nuclear Repulsion Energy =            104.0478795891537374
    One-Electron Energy =                -626.3493972083955441
    Two-Electron Energy =                 218.0768354474506054
    Total Energy =                       -304.2246821717912439
 Dipole X            :        -17.6648305           17.7708919            0.1060614
 Dipole Y            :        -58.9605249           59.0642253            0.1037004
 Dipole Z            :        -60.5344902           59.4129440           -1.1215462
 Magnitude           :                                                    1.1313128

    SAPT Results
  --------------------------------------------------------------------------------------------------------
    Electrostatics                -84.92574829 [mEh]     -53.29171162 [kcal/mol]    -222.97252143 [kJ/mol]
      Elst10,r                    -84.51512329 [mEh]     -53.03404054 [kcal/mol]    -221.89442562 [kJ/mol]
      Elst12,r                     -0.41062501 [mEh]      -0.25767108 [kcal/mol]      -1.07809581 [kJ/mol]

    Exchange                       72.36174987 [mEh]      45.40768358 [kcal/mol]     189.98574810 [kJ/mol]
      Exch10                       64.60981202 [mEh]      40.54326914 [kcal/mol]     169.63303808 [kJ/mol]
      Exch10(S^2)                  63.68248382 [mEh]      39.96136191 [kcal/mol]     167.19833823 [kJ/mol]
      Exch11(S^2)                   3.04113748 [mEh]       1.90834258 [kcal/mol]       7.98450536 [kJ/mol]
      Exch12(S^2)                   4.71080037 [mEh]       2.95607186 [kcal/mol]      12.36820466 [kJ/mol]

    Induction                     -33.02020823 [mEh]     -20.72049349 [kcal/mol]     -86.69454477 [kJ/mol]
      Ind20,r                     -55.25739765 [mEh]     -34.67454052 [kcal/mol]    -145.07827755 [kJ/mol]
      Ind22                        -7.20063104 [mEh]      -4.51846420 [kcal/mol]     -18.90525419 [kJ/mol]
      Exch-Ind20,r                 34.08251994 [mEh]      21.38710415 [kcal/mol]      89.48364377 [kJ/mol]
      Exch-Ind22                    4.44131757 [mEh]       2.78696885 [kcal/mol]      11.66067767 [kJ/mol]
      delta HF,r (2)               -9.08601704 [mEh]      -5.70156177 [kcal/mol]     -23.85533445 [kJ/mol]

    Dispersion                    -24.50425567 [mEh]     -15.37665258 [kcal/mol]     -64.33591439 [kJ/mol]
      Disp20                      -28.00662291 [mEh]     -17.57442120 [kcal/mol]     -73.53137832 [kJ/mol]
      Disp21                        1.93429288 [mEh]       1.21378711 [kcal/mol]       5.07848526 [kJ/mol]
      Disp22 (SDQ)                  0.04991329 [mEh]       0.03132106 [kcal/mol]       0.13104733 [kJ/mol]
      Disp22 (T)                   -4.40284513 [mEh]      -2.76282703 [kcal/mol]     -11.55966831 [kJ/mol]
      Est. Disp22 (T)              -5.03124528 [mEh]      -3.15715408 [kcal/mol]     -13.20953267 [kJ/mol]
      Exch-Disp20                   6.54940635 [mEh]       4.10981453 [kcal/mol]      17.19546401 [kJ/mol]

  Total HF                        -50.16620603 [mEh]     -31.47976955 [kcal/mol]    -131.71135578 [kJ/mol]
  Total SAPT0                     -71.62342258 [mEh]     -44.94437622 [kcal/mol]    -188.04727009 [kJ/mol]
  Total SAPT2                     -67.04142322 [mEh]     -42.06912820 [kcal/mol]    -176.01723240 [kJ/mol]
  Total SAPT2+                    -70.08846233 [mEh]     -43.98117411 [kcal/mol]    -184.01723249 [kJ/mol]

  Special recipe for scaled SAPT0 (see Manual):
    Electrostatics sSAPT0         -84.51512329 [mEh]     -53.03404054 [kcal/mol]    -221.89442562 [kJ/mol]
    Exchange sSAPT0                64.60981202 [mEh]      40.54326914 [kcal/mol]     169.63303808 [kJ/mol]
    Induction sSAPT0              -28.75020543 [mEh]     -18.04102628 [kcal/mol]     -75.48365395 [kJ/mol]
    Dispersion sSAPT0             -21.16691765 [mEh]     -13.28244136 [kcal/mol]     -55.57373463 [kJ/mol]
  Total sSAPT0                    -69.82243435 [mEh]     -43.81423903 [kcal/mol]    -183.31877612 [kJ/mol]
  --------------------------------------------------------------------------------------------------------

*** Psi4 exiting successfully. Buy a developer a beer!
