                               Psi4 1.8.2 release

  ==> Input File <==

--------------------------------------------------------------------------
MEMORY 60 GB

molecule dimer {
-1 1
Br     0.000000     0.000000     0.000000
--
0 1
O      0.827585    -0.673228     3.345565
H      1.608849    -1.256143     3.487856
H      0.809009    -0.281301     2.433452
O     -0.064610     2.592766     1.902330
H     -0.769192     3.247236     1.817366
H     -0.304759     1.892666     1.320770
O      2.158632    -2.165332    -1.610499
H      1.952538    -1.333555    -1.224842
H      3.138913    -2.262052    -1.619831
O      3.156044     1.337992    -0.732851
H      3.306466     0.506097    -0.217667
H      2.230436     1.255178    -0.739111

units ang
no_reorient
no_com
symmetry c1
}

set {
basis        aug-cc-pVTZ
scf_type     df
}

energy("sapt2+")
--------------------------------------------------------------------------

  //              Dimer HF             //
    Molecular point group: c1
  Charge       = -1
  Multiplicity = 1
  Basis Set: AUG-CC-PVTZ
    Blend: AUG-CC-PVTZ
  Basis Set: (AUG-CC-PVTZ AUX)
    Blend: AUG-CC-PVTZ-JKFIT
  @DF-RHF Final Energy: -2876.80173563580593
    Total Energy =                      -2876.8017356358059260
 Dipole X            :       -115.2450545          114.5050595           -0.7399950
 Dipole Y            :        -20.3040103           19.8529147           -0.4510957
 Dipole Z            :        -54.5524507           53.8465233           -0.7059274
 Magnitude           :                                                    1.1177716
  //            Monomer A HF           //
    Molecular point group: c1
  Multiplicity = 1
  Basis Set: AUG-CC-PVTZ
    Blend: AUG-CC-PVTZ
  Basis Set: (AUG-CC-PVTZ AUX)
    Blend: AUG-CC-PVTZ-JKFIT
  @DF-RHF Final Energy: -2572.53371775953974
    Total Energy =                      -2572.5337177595401954
  //            Monomer B HF           //
    Molecular point group: c1

    Geometry (in Angstrom), charge = 0, multiplicity = 1:

       Center              X                  Y                   Z               Mass
    ------------   -----------------  -----------------  -----------------  -----------------
      Gh(BR)          0.000000000000     0.000000000000     0.000000000000    78.918337600000
         O            0.827585000000    -0.673228000000     3.345565000000    15.994914619570
         H            1.608849000000    -1.256143000000     3.487856000000     1.007825032230
         H            0.809009000000    -0.281301000000     2.433452000000     1.007825032230
         O           -0.064610000000     2.592766000000     1.902330000000    15.994914619570
         H           -0.769192000000     3.247236000000     1.817366000000     1.007825032230
         H           -0.304759000000     1.892666000000     1.320770000000     1.007825032230
         O            2.158632000000    -2.165332000000    -1.610499000000    15.994914619570
         H            1.952538000000    -1.333555000000    -1.224842000000     1.007825032230
         H            3.138913000000    -2.262052000000    -1.619831000000     1.007825032230
         O            3.156044000000     1.337992000000    -0.732851000000    15.994914619570
         H            3.306466000000     0.506097000000    -0.217667000000     1.007825032230
         H            2.230436000000     1.255178000000    -0.739111000000     1.007825032230

  Charge       = 0
  Multiplicity = 1
  Basis Set: AUG-CC-PVTZ
    Blend: AUG-CC-PVTZ
  Basis Set: (AUG-CC-PVTZ AUX)
    Blend: AUG-CC-PVTZ-JKFIT

    Orbital Energies [Eh]
    ---------------------

    Doubly Occupied:

       1A    -20.590012     2A    -20.582245     3A    -20.577386
       4A    -20.573371     5A     -1.379346     6A     -1.366766
       7A     -1.364895     8A     -1.336949     9A     -0.737886
      10A     -0.734406    11A     -0.718183    12A     -0.714623
      13A     -0.621851    14A     -0.595013    15A     -0.592023
      16A     -0.567631    17A     -0.530984    18A     -0.524044
      19A     -0.521514    20A     -0.509087

  @DF-RHF Final Energy:  -304.22324396676214

   => Energetics <=

    Nuclear Repulsion Energy =            107.2067288653222477
    One-Electron Energy =                -632.5835100294868880
    Two-Electron Energy =                 221.1535371974024997
    Total Energy =                       -304.2232439667621406
 Dipole X            :       -114.6073899          114.5050595           -0.1023304
 Dipole Y            :        -20.0288186           19.8529147           -0.1759039
 Dipole Z            :        -54.1973334           53.8465233           -0.3508101
 Magnitude           :                                                    0.4055631

    SAPT Results
  --------------------------------------------------------------------------------------------------------
    Electrostatics                -69.08764286 [mEh]     -43.35315041 [kcal/mol]    -181.38958133 [kJ/mol]
      Elst10,r                    -68.93887015 [mEh]     -43.25979413 [kcal/mol]    -180.99897865 [kJ/mol]
      Elst12,r                     -0.14877270 [mEh]      -0.09335628 [kcal/mol]      -0.39060268 [kJ/mol]

    Exchange                       52.30424336 [mEh]      32.82140823 [kcal/mol]     137.32477203 [kJ/mol]
      Exch10                       46.80765943 [mEh]      29.37224974 [kcal/mol]     122.89349290 [kJ/mol]
      Exch10(S^2)                  46.33419714 [mEh]      29.07514767 [kcal/mol]     121.65041783 [kJ/mol]
      Exch11(S^2)                   1.80214149 [mEh]       1.13086086 [kcal/mol]       4.73152183 [kJ/mol]
      Exch12(S^2)                   3.69444244 [mEh]       2.31829763 [kcal/mol]       9.69975730 [kJ/mol]

    Induction                     -24.62172287 [mEh]     -15.45036436 [kcal/mol]     -64.64432449 [kJ/mol]
      Ind20,r                     -42.74118703 [mEh]     -26.82049978 [kcal/mol]    -112.21697108 [kJ/mol]
      Ind22                        -5.15250693 [mEh]      -3.23324691 [kcal/mol]     -13.52790507 [kJ/mol]
      Exch-Ind20,r                 26.32474356 [mEh]      16.51902598 [kcal/mol]      69.11560470 [kJ/mol]
      Exch-Ind22                    3.17348284 [mEh]       1.99139055 [kcal/mol]       8.33197805 [kJ/mol]
      delta HF,r (2)               -6.22625531 [mEh]      -3.90703420 [kcal/mol]     -16.34703108 [kJ/mol]

    Dispersion                    -19.73844839 [mEh]     -12.38606336 [kcal/mol]     -51.82328911 [kJ/mol]
      Disp20                      -22.36177643 [mEh]     -14.03222656 [kcal/mol]     -58.71083592 [kJ/mol]
      Disp21                        1.56401217 [mEh]       0.98143245 [kcal/mol]       4.10631339 [kJ/mol]
      Disp22 (SDQ)                 -0.03606848 [mEh]      -0.02263331 [kcal/mol]      -0.09469778 [kJ/mol]
      Disp22 (T)                   -3.50030356 [mEh]      -2.19647364 [kcal/mol]      -9.19004572 [kJ/mol]
      Est. Disp22 (T)              -4.03903422 [mEh]      -2.53453224 [kcal/mol]     -10.60448288 [kJ/mol]
      Exch-Disp20                   5.13441856 [mEh]       3.22189629 [kcal/mol]      13.48041408 [kJ/mol]

  Total HF                        -44.77390950 [mEh]     -28.09605239 [kcal/mol]    -117.55388321 [kJ/mol]
  Total SAPT0                     -62.00126737 [mEh]     -38.90638266 [kcal/mol]    -162.78430505 [kJ/mol]
  Total SAPT2                     -58.63248022 [mEh]     -36.79243681 [kcal/mol]    -153.93955562 [kJ/mol]
  Total SAPT2+                    -61.14357075 [mEh]     -38.36816991 [kcal/mol]    -160.53242289 [kJ/mol]

  Special recipe for scaled SAPT0 (see Manual):
    Electrostatics sSAPT0         -68.93887015 [mEh]     -43.25979413 [kcal/mol]    -180.99897865 [kJ/mol]
    Exchange sSAPT0                46.80765943 [mEh]      29.37224974 [kcal/mol]     122.89349290 [kJ/mol]
    Induction sSAPT0              -21.82743265 [mEh]     -13.69692078 [kcal/mol]     -57.30791653 [kJ/mol]
    Dispersion sSAPT0             -17.06834710 [mEh]     -10.71054951 [kcal/mol]     -44.81293914 [kJ/mol]
  Total sSAPT0                    -61.02699047 [mEh]     -38.29501468 [kcal/mol]    -160.22634141 [kJ/mol]
  --------------------------------------------------------------------------------------------------------

*** Psi4 exiting successfully. Buy a developer a beer!
