                               Psi4 1.8.2 release

  ==> Input File <==

--------------------------------------------------------------------------
MEMORY 60 GB

molecule dimer {
-1 1
Br     0.000000     0.000000     0.000000
--
0 1
O     -2.781824     0.954914     1.546349
H     -2.079798     0.629798     0.983421
H     -2.569173     1.860935     1.801428
O      0.417110     1.164103     2.920605
H     -0.279275     0.933093     3.573898
H      0.289615     0.628287     2.138627
O     -1.161290     3.255151    -0.272712
H     -0.718022     2.402898    -0.139574
H     -0.489651     3.796101    -0.744628
O      3.058295     1.334047    -0.433045
H      2.146353     1.140968    -0.250352
H      3.046948     2.024410    -1.133360
O     -1.361860     1.474861    -2.856186
H     -1.202291     1.027410    -1.978617
H     -0.871594     2.343189    -2.876970

units ang
no_reorient
no_com
symmetry c1
}

set {
basis        aug-cc-pVTZ
scf_type     df
}

energy("sapt2+")
--------------------------------------------------------------------------

  //              Dimer HF             //
    Molecular point group: c1
  Charge       = -1
  Multiplicity = 1
  Basis Set: AUG-CC-PVTZ
    Blend: AUG-CC-PVTZ
  Basis Set: (AUG-CC-PVTZ AUX)
    Blend: AUG-CC-PVTZ-JKFIT
  @DF-RHF Final Energy: -2952.87264267593218
    Total Energy =                      -2952.8726426759321839
 Dipole X            :         33.5680899          -32.8121462            0.7559437
 Dipole Y            :       -156.0548427          155.4331807           -0.6216620
 Dipole Z            :        -16.6845312           16.2780271           -0.4065040
 Magnitude           :                                                    1.0597924
  //            Monomer A HF           //
    Molecular point group: c1
  Multiplicity = 1
  Basis Set: AUG-CC-PVTZ
    Blend: AUG-CC-PVTZ
  Basis Set: (AUG-CC-PVTZ AUX)
    Blend: AUG-CC-PVTZ-JKFIT
  @DF-RHF Final Energy: -2572.53373343861631
    Total Energy =                      -2572.5337334386167640
  //            Monomer B HF           //
    Molecular point group: c1

    Geometry (in Angstrom), charge = 0, multiplicity = 1:

       Center              X                  Y                   Z               Mass
    ------------   -----------------  -----------------  -----------------  -----------------
      Gh(BR)          0.000000000000     0.000000000000     0.000000000000    78.918337600000
         O           -2.781824000000     0.954914000000     1.546349000000    15.994914619570
         H           -2.079798000000     0.629798000000     0.983421000000     1.007825032230
         H           -2.569173000000     1.860935000000     1.801428000000     1.007825032230
         O            0.417110000000     1.164103000000     2.920605000000    15.994914619570
         H           -0.279275000000     0.933093000000     3.573898000000     1.007825032230
         H            0.289615000000     0.628287000000     2.138627000000     1.007825032230
         O           -1.161290000000     3.255151000000    -0.272712000000    15.994914619570
         H           -0.718022000000     2.402898000000    -0.139574000000     1.007825032230
         H           -0.489651000000     3.796101000000    -0.744628000000     1.007825032230
         O            3.058295000000     1.334047000000    -0.433045000000    15.994914619570
         H            2.146353000000     1.140968000000    -0.250352000000     1.007825032230
         H            3.046948000000     2.024410000000    -1.133360000000     1.007825032230
         O           -1.361860000000     1.474861000000    -2.856186000000    15.994914619570
         H           -1.202291000000     1.027410000000    -1.978617000000     1.007825032230
         H           -0.871594000000     2.343189000000    -2.876970000000     1.007825032230

  Charge       = 0
  Multiplicity = 1
  Basis Set: AUG-CC-PVTZ
    Blend: AUG-CC-PVTZ
  Basis Set: (AUG-CC-PVTZ AUX)
    Blend: AUG-CC-PVTZ-JKFIT

    Orbital Energies [Eh]
    ---------------------

    Doubly Occupied:

       1A    -20.603218     2A    -20.587163     3A    -20.584833
       4A    -20.583701     5A    -20.578447     6A     -1.378397
       7A     -1.366878     8A     -1.362843     9A     -1.360449
      10A     -1.343729    11A     -0.741869    12A     -0.737179
      13A     -0.734477    14A     -0.732649    15A     -0.717236
      16A     -0.616500    17A     -0.598466    18A     -0.593539
      19A     -0.587129    20A     -0.584007    21A     -0.541253
      22A     -0.527611    23A     -0.527233    24A     -0.517921
      25A     -0.515345

  @DF-RHF Final Energy:  -380.27872233462608

   => Energetics <=

    Nuclear Repulsion Energy =            171.7809343302127729
    One-Electron Energy =                -866.0751654371533732
    Two-Electron Energy =                 314.0155087723145471
    Total Energy =                       -380.2787223346260816
 Dipole X            :         33.3376464          -32.8121462            0.5255002
 Dipole Y            :       -155.0234106          155.4331807            0.4097701
 Dipole Z            :        -16.5068194           16.2780271           -0.2287923
 Magnitude           :                                                    0.7045622

    SAPT Results
  --------------------------------------------------------------------------------------------------------
    Electrostatics               -101.48905147 [mEh]     -63.68534128 [kcal/mol]    -266.45946791 [kJ/mol]
      Elst10,r                   -100.99255667 [mEh]     -63.37378609 [kcal/mol]    -265.15592102 [kJ/mol]
      Elst12,r                     -0.49649479 [mEh]      -0.31155519 [kcal/mol]      -1.30354690 [kJ/mol]

    Exchange                       84.95278434 [mEh]      53.30867700 [kcal/mol]     223.04350455 [kJ/mol]
      Exch10                       75.74273035 [mEh]      47.52928086 [kcal/mol]     198.86251114 [kJ/mol]
      Exch10(S^2)                  74.73953761 [mEh]      46.89976792 [kcal/mol]     196.22862896 [kJ/mol]
      Exch11(S^2)                   3.39350153 [mEh]       2.12945436 [kcal/mol]       8.90963704 [kJ/mol]
      Exch12(S^2)                   5.81655246 [mEh]       3.64994177 [kcal/mol]      15.27135637 [kJ/mol]

    Induction                     -38.27529914 [mEh]     -24.01811282 [kcal/mol]    -100.49178405 [kJ/mol]
      Ind20,r                     -65.42532144 [mEh]     -41.05500903 [kcal/mol]    -171.77415779 [kJ/mol]
      Ind22                        -8.69151719 [mEh]      -5.45400938 [kcal/mol]     -22.81957523 [kJ/mol]
      Exch-Ind20,r                 40.29687801 [mEh]      25.28667272 [kcal/mol]     105.79943864 [kJ/mol]
      Exch-Ind22                    5.35329441 [mEh]       3.35924296 [kcal/mol]      14.05507255 [kJ/mol]
      delta HF,r (2)               -9.80863293 [mEh]      -6.15501009 [kcal/mol]     -25.75256222 [kJ/mol]

    Dispersion                    -29.48403655 [mEh]     -18.50151226 [kcal/mol]     -77.41032729 [kJ/mol]
      Disp20                      -33.79149652 [mEh]     -21.20448420 [kcal/mol]     -88.71956190 [kJ/mol]
      Disp21                        2.54784184 [mEh]       1.59879489 [kcal/mol]       6.68935784 [kJ/mol]
      Disp22 (SDQ)                 -0.04553345 [mEh]      -0.02857267 [kcal/mol]      -0.11954806 [kJ/mol]
      Disp22 (T)                   -5.35986596 [mEh]      -3.36336667 [kcal/mol]     -14.07232615 [kJ/mol]
      Est. Disp22 (T)              -6.11242228 [mEh]      -3.83560289 [kcal/mol]     -16.04816249 [kJ/mol]
      Exch-Disp20                   7.91757386 [mEh]       4.96835261 [kcal/mol]      20.78758731 [kJ/mol]

  Total HF                        -60.18690269 [mEh]     -37.76785164 [kcal/mol]    -158.02069124 [kJ/mol]
  Total SAPT0                     -86.06082535 [mEh]     -54.00398323 [kcal/mol]    -225.95266583 [kJ/mol]
  Total SAPT2                     -80.68548893 [mEh]     -50.63090870 [kcal/mol]    -211.83972200 [kJ/mol]
  Total SAPT2+                    -84.29560282 [mEh]     -52.89628937 [kcal/mol]    -221.31807470 [kJ/mol]

  Special recipe for scaled SAPT0 (see Manual):
    Electrostatics sSAPT0        -100.99255667 [mEh]     -63.37378609 [kcal/mol]    -265.15592102 [kJ/mol]
    Exchange sSAPT0                75.74273035 [mEh]      47.52928086 [kcal/mol]     198.86251114 [kJ/mol]
    Induction sSAPT0              -33.29254215 [mEh]     -20.89138560 [kcal/mol]     -87.40955736 [kJ/mol]
    Dispersion sSAPT0             -25.55080281 [mEh]     -16.03337083 [kcal/mol]     -67.08362354 [kJ/mol]
  Total sSAPT0                    -84.09317128 [mEh]     -52.76926166 [kcal/mol]    -220.78659078 [kJ/mol]
  --------------------------------------------------------------------------------------------------------

*** Psi4 exiting successfully. Buy a developer a beer!
