                               Psi4 1.8.2 release

  ==> Input File <==

--------------------------------------------------------------------------
MEMORY 60 GB

molecule dimer {
-1 1
Br     0.000000     0.000000     0.000000
--
0 1
O      0.537883    -2.592701     1.926681
H     -0.386009    -2.598137     2.112065
H      0.722606    -1.933912     1.307501
O      1.291657    -2.839776    -1.063081
H      0.556916    -2.277466    -0.805116
H      1.883573    -2.161705    -1.372666
O     -1.874314    -0.408243     2.636827
H     -1.328717    -0.039733     1.938784
H     -2.727285    -0.453675     2.229542

units ang
no_reorient
no_com
symmetry c1
}

set {
basis        aug-cc-pVTZ
scf_type     df
}

energy("sapt2+")
--------------------------------------------------------------------------

  //              Dimer HF             //
    Molecular point group: c1
  Charge       = -1
  Multiplicity = 1
  Basis Set: AUG-CC-PVTZ
    Blend: AUG-CC-PVTZ
  Basis Set: (AUG-CC-PVTZ AUX)
    Blend: AUG-CC-PVTZ-JKFIT
  @DF-RHF Final Energy: -2800.74631910352673
    Total Energy =                      -2800.7463191035267300
 Dipole X            :          2.3825271           -3.0936858           -0.7111586
 Dipole Y            :        108.1955408         -106.1844442            2.0110966
 Dipole Z            :        -64.4915952           63.1424130           -1.3491822
 Magnitude           :                                                    2.5239946
  //            Monomer A HF           //
    Molecular point group: c1
  Multiplicity = 1
  Basis Set: AUG-CC-PVTZ
    Blend: AUG-CC-PVTZ
  Basis Set: (AUG-CC-PVTZ AUX)
    Blend: AUG-CC-PVTZ-JKFIT
  @DF-RHF Final Energy: -2572.53370855936282
    Total Energy =                      -2572.5337085593632764
  //            Monomer B HF           //
    Molecular point group: c1

    Geometry (in Angstrom), charge = 0, multiplicity = 1:

       Center              X                  Y                   Z               Mass
    ------------   -----------------  -----------------  -----------------  -----------------
      Gh(BR)          0.000000000000     0.000000000000     0.000000000000    78.918337600000
         O            0.537883000000    -2.592701000000     1.926681000000    15.994914619570
         H           -0.386009000000    -2.598137000000     2.112065000000     1.007825032230
         H            0.722606000000    -1.933912000000     1.307501000000     1.007825032230
         O            1.291657000000    -2.839776000000    -1.063081000000    15.994914619570
         H            0.556916000000    -2.277466000000    -0.805116000000     1.007825032230
         H            1.883573000000    -2.161705000000    -1.372666000000     1.007825032230
         O           -1.874314000000    -0.408243000000     2.636827000000    15.994914619570
         H           -1.328717000000    -0.039733000000     1.938784000000     1.007825032230
         H           -2.727285000000    -0.453675000000     2.229542000000     1.007825032230

  Charge       = 0
  Multiplicity = 1
  Basis Set: AUG-CC-PVTZ
    Blend: AUG-CC-PVTZ
  Basis Set: (AUG-CC-PVTZ AUX)
    Blend: AUG-CC-PVTZ-JKFIT

    Orbital Energies [Eh]
    ---------------------

    Doubly Occupied:

       1A    -20.584756     2A    -20.574934     3A    -20.550166
       4A     -1.375279     5A     -1.365390     6A     -1.353563
       7A     -0.734640     8A     -0.733654     9A     -0.710534
      10A     -0.606735    11A     -0.602071    12A     -0.571425
      13A     -0.528753    14A     -0.520970    15A     -0.496957

  @DF-RHF Final Energy:  -228.17421791832186

   => Energetics <=

    Nuclear Repulsion Energy =             71.1275308662950749
    One-Electron Energy =                -455.9838402029126314
    Two-Electron Energy =                 156.6820914182956699
    Total Energy =                       -228.1742179183218582
 Dipole X            :          2.2826314           -3.0936858           -0.8110544
 Dipole Y            :        107.6095396         -106.1844442            1.4250954
 Dipole Z            :        -64.1526248           63.1424130           -1.0102118
 Magnitude           :                                                    1.9259371

    SAPT Results
  --------------------------------------------------------------------------------------------------------
    Electrostatics                -71.09780707 [mEh]     -44.61454750 [kcal/mol]    -186.66726674 [kJ/mol]
      Elst10,r                    -71.02281082 [mEh]     -44.56748665 [kcal/mol]    -186.47036413 [kJ/mol]
      Elst12,r                     -0.07499624 [mEh]      -0.04706085 [kcal/mol]      -0.19690261 [kJ/mol]

    Exchange                       57.76622930 [mEh]      36.24885615 [kcal/mol]     151.66521414 [kJ/mol]
      Exch10                       51.53360243 [mEh]      32.33782375 [kcal/mol]     135.30145455 [kJ/mol]
      Exch10(S^2)                  50.76831934 [mEh]      31.85760135 [kcal/mol]     133.29220406 [kJ/mol]
      Exch11(S^2)                   2.23292045 [mEh]       1.40117874 [kcal/mol]       5.86253184 [kJ/mol]
      Exch12(S^2)                   3.99970642 [mEh]       2.50985367 [kcal/mol]      10.50122775 [kJ/mol]

    Induction                     -20.78794388 [mEh]     -13.04463172 [kcal/mol]     -54.57873914 [kJ/mol]
      Ind20,r                     -43.72573326 [mEh]     -27.43831187 [kcal/mol]    -114.80189685 [kJ/mol]
      Ind22                        -6.31215725 [mEh]      -3.96093848 [kcal/mol]     -16.57256659 [kJ/mol]
      Exch-Ind20,r                 30.67119477 [mEh]      19.24646529 [kcal/mol]      80.52721077 [kJ/mol]
      Exch-Ind22                    4.42763083 [mEh]       2.77838029 [kcal/mol]      11.62474314 [kJ/mol]
      delta HF,r (2)               -5.84887897 [mEh]      -3.67022696 [kcal/mol]     -15.35622961 [kJ/mol]

    Dispersion                    -18.90703853 [mEh]     -11.86434580 [kcal/mol]     -49.64042282 [kJ/mol]
      Disp20                      -22.00553210 [mEh]     -13.80867987 [kcal/mol]     -57.77551656 [kJ/mol]
      Disp21                        1.60600053 [mEh]       1.00778054 [kcal/mol]       4.21655380 [kJ/mol]
      Disp22 (SDQ)                 -0.12259545 [mEh]      -0.07692981 [kcal/mol]      -0.32187432 [kJ/mol]
      Disp22 (T)                   -3.42218737 [mEh]      -2.14745500 [kcal/mol]      -8.98495171 [kJ/mol]
      Est. Disp22 (T)              -3.92553003 [mEh]      -2.46330728 [kcal/mol]     -10.30647768 [kJ/mol]
      Exch-Disp20                   5.54061853 [mEh]       3.47679062 [kcal/mol]      14.54689194 [kJ/mol]

  Total HF                        -38.39262584 [mEh]     -24.09173644 [kcal/mol]    -100.79982526 [kJ/mol]
  Total SAPT0                     -54.85753941 [mEh]     -34.42362569 [kcal/mol]    -144.02844988 [kJ/mol]
  Total SAPT2                     -50.58443521 [mEh]     -31.74221232 [kcal/mol]    -132.80941635 [kJ/mol]
  Total SAPT2+                    -53.02656017 [mEh]     -33.27466887 [kcal/mol]    -139.22121456 [kJ/mol]

  Special recipe for scaled SAPT0 (see Manual):
    Electrostatics sSAPT0         -71.02281082 [mEh]     -44.56748665 [kcal/mol]    -186.47036413 [kJ/mol]
    Exchange sSAPT0                51.53360243 [mEh]      32.33782375 [kcal/mol]     135.30145455 [kJ/mol]
    Induction sSAPT0              -17.49538909 [mEh]     -10.97852240 [kcal/mol]     -45.93413772 [kJ/mol]
    Dispersion sSAPT0             -16.21055934 [mEh]     -10.17227956 [kcal/mol]     -42.56081769 [kJ/mol]
  Total sSAPT0                    -53.19515682 [mEh]     -33.38046486 [kcal/mol]    -139.66386498 [kJ/mol]
  --------------------------------------------------------------------------------------------------------

*** Psi4 exiting successfully. Buy a developer a beer!
