                               Psi4 1.8.2 release

  ==> Input File <==

--------------------------------------------------------------------------
MEMORY 60 GB

molecule dimer {
-1 1
Br     0.000000     0.000000     0.000000
--
0 1
O     -2.443613    -2.360774    -0.255856
H     -1.986974    -1.574922    -0.584686
H     -3.201224    -2.434475    -0.842092
O      3.066514    -0.605083     1.353026
H      2.141438    -0.713791     1.099239
H      3.086047    -0.698339     2.294813
O      0.367047    -3.332711     0.754569
H      1.227098    -3.062496     0.463316
H     -0.190689    -2.686798     0.393415
O      0.333694    -0.332488    -3.479360
H      0.357208    -0.153407    -2.541475
H     -0.280528    -1.086508    -3.536513
O     -0.545829     2.707927     1.712656
H     -1.489040     2.571515     1.590886
H     -0.104623     1.938941     1.344831

units ang
no_reorient
no_com
symmetry c1
}

set {
basis        aug-cc-pVTZ
scf_type     df
}

energy("sapt2+")
--------------------------------------------------------------------------

  //              Dimer HF             //
    Molecular point group: c1
  Charge       = -1
  Multiplicity = 1
  Basis Set: AUG-CC-PVTZ
    Blend: AUG-CC-PVTZ
  Basis Set: (AUG-CC-PVTZ AUX)
    Blend: AUG-CC-PVTZ-JKFIT
  @DF-RHF Final Energy: -2952.88584696193766
    Total Energy =                      -2952.8858469619376592
 Dipole X            :        -12.2958584           10.9249168           -1.3709416
 Dipole Y            :         74.4677381          -74.2384804            0.2292577
 Dipole Z            :         -0.9515841            0.6841073           -0.2674768
 Magnitude           :                                                    1.4154801
  //            Monomer A HF           //
    Molecular point group: c1
  Multiplicity = 1
  Basis Set: AUG-CC-PVTZ
    Blend: AUG-CC-PVTZ
  Basis Set: (AUG-CC-PVTZ AUX)
    Blend: AUG-CC-PVTZ-JKFIT
  @DF-RHF Final Energy: -2572.53372826007580
    Total Energy =                      -2572.5337282600753497
  //            Monomer B HF           //
    Molecular point group: c1

    Geometry (in Angstrom), charge = 0, multiplicity = 1:

       Center              X                  Y                   Z               Mass
    ------------   -----------------  -----------------  -----------------  -----------------
      Gh(BR)          0.000000000000     0.000000000000     0.000000000000    78.918337600000
         O           -2.443613000000    -2.360774000000    -0.255856000000    15.994914619570
         H           -1.986974000000    -1.574922000000    -0.584686000000     1.007825032230
         H           -3.201224000000    -2.434475000000    -0.842092000000     1.007825032230
         O            3.066514000000    -0.605083000000     1.353026000000    15.994914619570
         H            2.141438000000    -0.713791000000     1.099239000000     1.007825032230
         H            3.086047000000    -0.698339000000     2.294813000000     1.007825032230
         O            0.367047000000    -3.332711000000     0.754569000000    15.994914619570
         H            1.227098000000    -3.062496000000     0.463316000000     1.007825032230
         H           -0.190689000000    -2.686798000000     0.393415000000     1.007825032230
         O            0.333694000000    -0.332488000000    -3.479360000000    15.994914619570
         H            0.357208000000    -0.153407000000    -2.541475000000     1.007825032230
         H           -0.280528000000    -1.086508000000    -3.536513000000     1.007825032230
         O           -0.545829000000     2.707927000000     1.712656000000    15.994914619570
         H           -1.489040000000     2.571515000000     1.590886000000     1.007825032230
         H           -0.104623000000     1.938941000000     1.344831000000     1.007825032230

  Charge       = 0
  Multiplicity = 1
  Basis Set: AUG-CC-PVTZ
    Blend: AUG-CC-PVTZ
  Basis Set: (AUG-CC-PVTZ AUX)
    Blend: AUG-CC-PVTZ-JKFIT

    Orbital Energies [Eh]
    ---------------------

    Doubly Occupied:

       1A    -20.600405     2A    -20.588138     3A    -20.580905
       4A    -20.578726     5A    -20.568268     6A     -1.384140
       7A     -1.369843     8A     -1.369823     9A     -1.367827
      10A     -1.362238    11A     -0.748801    12A     -0.735993
      13A     -0.732227    14A     -0.728444    15A     -0.727050
      16A     -0.617819    17A     -0.604905    18A     -0.598047
      19A     -0.594166    20A     -0.591196    21A     -0.542526
      22A     -0.528422    23A     -0.525016    24A     -0.520995
      25A     -0.515653

  @DF-RHF Final Energy:  -380.29558956475131

   => Energetics <=

    Nuclear Repulsion Energy =            155.7742972987652195
    One-Electron Energy =                -833.9766222950712518
    Two-Electron Energy =                 297.9067354315547504
    Total Energy =                       -380.2955895647513103
 Dipole X            :        -12.3125105           10.9249168           -1.3875937
 Dipole Y            :         74.1551176          -74.2384804           -0.0833628
 Dipole Z            :         -1.0035685            0.6841073           -0.3194612
 Magnitude           :                                                    1.4263314

    SAPT Results
  --------------------------------------------------------------------------------------------------------
    Electrostatics                -91.92872459 [mEh]     -57.68614559 [kcal/mol]    -241.35883315 [kJ/mol]
      Elst10,r                    -92.01453592 [mEh]     -57.73999302 [kcal/mol]    -241.58413078 [kJ/mol]
      Elst12,r                      0.08581133 [mEh]       0.05384742 [kcal/mol]       0.22529763 [kJ/mol]

    Exchange                       67.65917944 [mEh]      42.45677609 [kcal/mol]     177.63915116 [kJ/mol]
      Exch10                       59.83698779 [mEh]      37.54827672 [kcal/mol]     157.10198980 [kJ/mol]
      Exch10(S^2)                  59.34353555 [mEh]      37.23863077 [kcal/mol]     155.80643112 [kJ/mol]
      Exch11(S^2)                   2.90990595 [mEh]       1.82599355 [kcal/mol]       7.63995703 [kJ/mol]
      Exch12(S^2)                   4.91228570 [mEh]       3.08250581 [kcal/mol]      12.89720433 [kJ/mol]

    Induction                     -26.92849287 [mEh]     -16.89788439 [kcal/mol]     -70.70074829 [kJ/mol]
      Ind20,r                     -51.98431704 [mEh]     -32.62065143 [kcal/mol]    -136.48480559 [kJ/mol]
      Ind22                        -7.21659508 [mEh]      -4.52848178 [kcal/mol]     -18.94716778 [kJ/mol]
      Exch-Ind20,r                 33.42174187 [mEh]      20.97245965 [kcal/mol]      87.74877120 [kJ/mol]
      Exch-Ind22                    4.63969120 [mEh]       2.91145018 [kcal/mol]      12.18150756 [kJ/mol]
      delta HF,r (2)               -5.78901381 [mEh]      -3.63266101 [kcal/mol]     -15.19905367 [kJ/mol]

    Dispersion                    -25.68618245 [mEh]     -16.11832283 [kcal/mol]     -67.43906272 [kJ/mol]
      Disp20                      -29.01747819 [mEh]     -18.20874247 [kcal/mol]     -76.18537848 [kJ/mol]
      Disp21                        1.91438605 [mEh]       1.20129538 [kcal/mol]       5.02621988 [kJ/mol]
      Disp22 (SDQ)                 -0.09672300 [mEh]      -0.06069460 [kcal/mol]      -0.25394621 [kJ/mol]
      Disp22 (T)                   -4.54945899 [mEh]      -2.85482861 [kcal/mol]     -11.94460292 [kJ/mol]
      Est. Disp22 (T)              -5.27556674 [mEh]      -3.31046811 [kcal/mol]     -13.85099857 [kJ/mol]
      Exch-Disp20                   6.78919944 [mEh]       4.26028697 [kcal/mol]      17.82504067 [kJ/mol]

  Total HF                        -56.52913711 [mEh]     -35.47256908 [kcal/mol]    -148.41722904 [kJ/mol]
  Total SAPT0                     -78.75741586 [mEh]     -49.42102458 [kcal/mol]    -206.77756685 [kJ/mol]
  Total SAPT2                     -73.42631676 [mEh]     -46.07570939 [kcal/mol]    -192.78076810 [kJ/mol]
  Total SAPT2+                    -76.88422046 [mEh]     -48.24557672 [kcal/mol]    -201.85949300 [kJ/mol]

  Special recipe for scaled SAPT0 (see Manual):
    Electrostatics sSAPT0         -92.01453592 [mEh]     -57.73999302 [kcal/mol]    -241.58413078 [kJ/mol]
    Exchange sSAPT0                59.83698779 [mEh]      37.54827672 [kcal/mol]     157.10198980 [kJ/mol]
    Induction sSAPT0              -23.51091370 [mEh]     -14.75332109 [kcal/mol]     -61.72789543 [kJ/mol]
    Dispersion sSAPT0             -22.05750632 [mEh]     -13.84129418 [kcal/mol]     -57.91197486 [kJ/mol]
  Total sSAPT0                    -77.74596815 [mEh]     -48.78633156 [kcal/mol]    -204.12201126 [kJ/mol]
  --------------------------------------------------------------------------------------------------------

*** Psi4 exiting successfully. Buy a developer a beer!
