                               Psi4 1.8.2 release

  ==> Input File <==

--------------------------------------------------------------------------
MEMORY 60 GB

molecule dimer {
-1 1
Br     0.000000     0.000000     0.000000
--
0 1
O      1.578311    -2.750057     1.129134
H      2.275052    -2.856220     0.456785
H      1.365926    -1.831382     1.132918
O      1.294967     2.190981     1.966174
H      0.633025     2.183210     2.649956
H      0.974462     1.512747     1.303727
O     -0.142327     0.019548     3.444487
H      0.556138    -0.565782     3.737245
H     -0.248290     0.125821     2.436320
O     -1.175057    -3.092866     0.072592
H     -1.948415    -2.982136    -0.544682
H     -0.845584    -2.244508     0.354573
O     -2.669208    -0.113958     2.008018
H     -3.296598     0.445070     1.489547
H     -1.952017    -0.165603     1.402326
O      3.253588     1.021586    -0.786884
H      2.951647     1.725248    -1.377890
H      2.551185     0.537784    -0.424420

units ang
no_reorient
no_com
symmetry c1
}

set {
basis        aug-cc-pVTZ
scf_type     df
}

energy("sapt2+")
--------------------------------------------------------------------------

  //              Dimer HF             //
    Molecular point group: c1
  Charge       = -1
  Multiplicity = 1
  Basis Set: AUG-CC-PVTZ
    Blend: AUG-CC-PVTZ
  Basis Set: (AUG-CC-PVTZ AUX)
    Blend: AUG-CC-PVTZ-JKFIT
  @DF-RHF Final Energy: -3028.91981359361853
    Total Energy =                      -3028.9198135936185281
 Dipole X            :        -39.0292169           38.0566710           -0.9725459
 Dipole Y            :         49.8511372          -48.9701342            0.8810031
 Dipole Z            :       -144.9662540          142.2672244           -2.6990296
 Magnitude           :                                                    3.0011286
  //            Monomer A HF           //
    Molecular point group: c1
  Multiplicity = 1
  Basis Set: AUG-CC-PVTZ
    Blend: AUG-CC-PVTZ
  Basis Set: (AUG-CC-PVTZ AUX)
    Blend: AUG-CC-PVTZ-JKFIT
  @DF-RHF Final Energy: -2572.53374095118033
    Total Energy =                      -2572.5337409511798796
  //            Monomer B HF           //
    Molecular point group: c1

    Geometry (in Angstrom), charge = 0, multiplicity = 1:

       Center              X                  Y                   Z               Mass
    ------------   -----------------  -----------------  -----------------  -----------------
      Gh(BR)          0.000000000000     0.000000000000     0.000000000000    78.918337600000
         O            1.578311000000    -2.750057000000     1.129134000000    15.994914619570
         H            2.275052000000    -2.856220000000     0.456785000000     1.007825032230
         H            1.365926000000    -1.831382000000     1.132918000000     1.007825032230
         O            1.294967000000     2.190981000000     1.966174000000    15.994914619570
         H            0.633025000000     2.183210000000     2.649956000000     1.007825032230
         H            0.974462000000     1.512747000000     1.303727000000     1.007825032230
         O           -0.142327000000     0.019548000000     3.444487000000    15.994914619570
         H            0.556138000000    -0.565782000000     3.737245000000     1.007825032230
         H           -0.248290000000     0.125821000000     2.436320000000     1.007825032230
         O           -1.175057000000    -3.092866000000     0.072592000000    15.994914619570
         H           -1.948415000000    -2.982136000000    -0.544682000000     1.007825032230
         H           -0.845584000000    -2.244508000000     0.354573000000     1.007825032230
         O           -2.669208000000    -0.113958000000     2.008018000000    15.994914619570
         H           -3.296598000000     0.445070000000     1.489547000000     1.007825032230
         H           -1.952017000000    -0.165603000000     1.402326000000     1.007825032230
         O            3.253588000000     1.021586000000    -0.786884000000    15.994914619570
         H            2.951647000000     1.725248000000    -1.377890000000     1.007825032230
         H            2.551185000000     0.537784000000    -0.424420000000     1.007825032230

  Charge       = 0
  Multiplicity = 1
  Basis Set: AUG-CC-PVTZ
    Blend: AUG-CC-PVTZ
  Basis Set: (AUG-CC-PVTZ AUX)
    Blend: AUG-CC-PVTZ-JKFIT

    Orbital Energies [Eh]
    ---------------------

    Doubly Occupied:

       1A    -20.591713     2A    -20.583075     3A    -20.582154
       4A    -20.581352     5A    -20.577366     6A    -20.571870
       7A     -1.376862     8A     -1.369619     9A     -1.369002
      10A     -1.358661    11A     -1.347352    12A     -1.345554
      13A     -0.754864    14A     -0.749613    15A     -0.738717
      16A     -0.723880    17A     -0.720918    18A     -0.719306
      19A     -0.612114    20A     -0.597527    21A     -0.595214
      22A     -0.586117    23A     -0.572497    24A     -0.571841
      25A     -0.534764    26A     -0.527680    27A     -0.526907
      28A     -0.523636    29A     -0.509219    30A     -0.507863

  @DF-RHF Final Energy:  -456.31714843584996

   => Energetics <=

    Nuclear Repulsion Energy =            242.9071424492414621
    One-Electron Energy =               -1112.9940652763657454
    Two-Electron Energy =                 413.7697743912742681
    Total Energy =                       -456.3171484358499583
 Dipole X            :        -38.8980458           38.0566710           -0.8413748
 Dipole Y            :         49.7419112          -48.9701342            0.7717770
 Dipole Z            :       -144.0014758          142.2672244           -1.7342514
 Magnitude           :                                                    2.0763380

    SAPT Results
  --------------------------------------------------------------------------------------------------------
    Electrostatics               -121.62895781 [mEh]     -76.32332331 [kcal/mol]    -319.33678472 [kJ/mol]
      Elst10,r                   -121.30276592 [mEh]     -76.11863481 [kcal/mol]    -318.48036804 [kJ/mol]
      Elst12,r                     -0.32619189 [mEh]      -0.20468850 [kcal/mol]      -0.85641669 [kJ/mol]

    Exchange                      102.92884886 [mEh]      64.58882779 [kcal/mol]     270.23965546 [kJ/mol]
      Exch10                       90.58163126 [mEh]      56.84083176 [kcal/mol]     237.82204010 [kJ/mol]
      Exch10(S^2)                  89.12934192 [mEh]      55.92950645 [kcal/mol]     234.00905497 [kJ/mol]
      Exch11(S^2)                   4.74416168 [mEh]       2.97700640 [kcal/mol]      12.45579478 [kJ/mol]
      Exch12(S^2)                   7.60305593 [mEh]       4.77098962 [kcal/mol]      19.96182058 [kJ/mol]

    Induction                     -42.66966232 [mEh]     -26.77561735 [kcal/mol]    -112.02918299 [kJ/mol]
      Ind20,r                     -76.70427953 [mEh]     -48.13266208 [kcal/mol]    -201.38705815 [kJ/mol]
      Ind22                       -12.26822619 [mEh]      -7.69842816 [kcal/mol]     -32.21022343 [kJ/mol]
      Exch-Ind20,r                 48.77794423 [mEh]      30.60862212 [kcal/mol]     128.06647494 [kJ/mol]
      Exch-Ind22                    7.80163580 [mEh]       4.89560037 [kcal/mol]      20.48319196 [kJ/mol]
      delta HF,r (2)              -10.27673664 [mEh]      -6.44874960 [kcal/mol]     -26.98156833 [kJ/mol]

    Dispersion                    -35.92848905 [mEh]     -22.54546726 [kcal/mol]     -94.33023500 [kJ/mol]
      Disp20                      -41.28359059 [mEh]     -25.90584420 [kcal/mol]    -108.39005215 [kJ/mol]
      Disp21                        3.44077878 [mEh]       2.15912128 [kcal/mol]       9.03376344 [kJ/mol]
      Disp22 (SDQ)                 -0.28333249 [mEh]      -0.17779382 [kcal/mol]      -0.74388936 [kJ/mol]
      Disp22 (T)                   -6.69382500 [mEh]      -4.20043860 [kcal/mol]     -17.57463511 [kJ/mol]
      Est. Disp22 (T)              -7.60663118 [mEh]      -4.77323313 [kcal/mol]     -19.97120742 [kJ/mol]
      Exch-Disp20                   9.80428644 [mEh]       6.15228263 [kcal/mol]      25.74115050 [kJ/mol]

  Total HF                        -68.92420659 [mEh]     -43.25059261 [kcal/mol]    -180.96047947 [kJ/mol]
  Total SAPT0                    -100.40351073 [mEh]     -63.00415419 [kcal/mol]    -263.60938111 [kJ/mol]
  Total SAPT2                     -92.84907541 [mEh]     -58.26367445 [kcal/mol]    -243.77521390 [kJ/mol]
  Total SAPT2+                    -97.29826031 [mEh]     -61.05558013 [kcal/mol]    -255.45654725 [kJ/mol]

  Special recipe for scaled SAPT0 (see Manual):
    Electrostatics sSAPT0        -121.30276592 [mEh]     -76.11863481 [kcal/mol]    -318.48036804 [kJ/mol]
    Exchange sSAPT0                90.58163126 [mEh]      56.84083176 [kcal/mol]     237.82204010 [kJ/mol]
    Induction sSAPT0              -35.77961977 [mEh]     -22.45205037 [kcal/mol]     -93.93937877 [kJ/mol]
    Dispersion sSAPT0             -30.99219425 [mEh]     -19.44789551 [kcal/mol]     -81.36999480 [kJ/mol]
  Total sSAPT0                    -97.49294868 [mEh]     -61.17774893 [kcal/mol]    -255.96770150 [kJ/mol]
  --------------------------------------------------------------------------------------------------------

*** Psi4 exiting successfully. Buy a developer a beer!
