                               Psi4 1.8.2 release

  ==> Input File <==

--------------------------------------------------------------------------
MEMORY 60 GB

molecule dimer {
-1 1
Br     0.000000     0.000000     0.000000
--
0 1
O     -2.113858    -2.512859    -1.150525
H     -1.719212    -1.655030    -0.988060
H     -3.081330    -2.317677    -0.996356
O      2.801363    -0.362759    -2.114060
H      2.269415    -0.106052    -1.334895
H      2.149716    -0.381102    -2.814470
O      1.551532     1.868500     2.398071
H      0.950373     1.393075     1.807719
H      1.026933     2.134675     3.208996
O     -2.493947     2.161427     0.432978
H     -1.694356     1.623968     0.386821
H     -3.103791     1.928874    -0.305995
O     -1.293434    -0.333436     3.221317
H     -0.726989    -0.492791     2.454595
H     -1.835080     0.452199     3.109521
O      0.747393     3.065685    -1.348131
H      0.606392     2.246399    -0.896833
H      0.782266     3.812533    -0.695899

units ang
no_reorient
no_com
symmetry c1
}

set {
basis        aug-cc-pVTZ
scf_type     df
}

energy("sapt2+")
--------------------------------------------------------------------------

  //              Dimer HF             //
    Molecular point group: c1
  Charge       = -1
  Multiplicity = 1
  Basis Set: AUG-CC-PVTZ
    Blend: AUG-CC-PVTZ
  Basis Set: (AUG-CC-PVTZ AUX)
    Blend: AUG-CC-PVTZ-JKFIT
  @DF-RHF Final Energy: -3028.94643635294415
    Total Energy =                      -3028.9464363529446018
 Dipole X            :         18.7968903          -20.3774289           -1.5805386
 Dipole Y            :        -75.0421119           75.0817197            0.0396078
 Dipole Z            :        -27.4606227           27.3109720           -0.1496506
 Magnitude           :                                                    1.5881015
  //            Monomer A HF           //
    Molecular point group: c1
  Multiplicity = 1
  Basis Set: AUG-CC-PVTZ
    Blend: AUG-CC-PVTZ
  Basis Set: (AUG-CC-PVTZ AUX)
    Blend: AUG-CC-PVTZ-JKFIT
  @DF-RHF Final Energy: -2572.53373881085145
    Total Energy =                      -2572.5337388108514460
  //            Monomer B HF           //
    Molecular point group: c1

    Geometry (in Angstrom), charge = 0, multiplicity = 1:

       Center              X                  Y                   Z               Mass
    ------------   -----------------  -----------------  -----------------  -----------------
      Gh(BR)          0.000000000000     0.000000000000     0.000000000000    78.918337600000
         O           -2.113858000000    -2.512859000000    -1.150525000000    15.994914619570
         H           -1.719212000000    -1.655030000000    -0.988060000000     1.007825032230
         H           -3.081330000000    -2.317677000000    -0.996356000000     1.007825032230
         O            2.801363000000    -0.362759000000    -2.114060000000    15.994914619570
         H            2.269415000000    -0.106052000000    -1.334895000000     1.007825032230
         H            2.149716000000    -0.381102000000    -2.814470000000     1.007825032230
         O            1.551532000000     1.868500000000     2.398071000000    15.994914619570
         H            0.950373000000     1.393075000000     1.807719000000     1.007825032230
         H            1.026933000000     2.134675000000     3.208996000000     1.007825032230
         O           -2.493947000000     2.161427000000     0.432978000000    15.994914619570
         H           -1.694356000000     1.623968000000     0.386821000000     1.007825032230
         H           -3.103791000000     1.928874000000    -0.305995000000     1.007825032230
         O           -1.293434000000    -0.333436000000     3.221317000000    15.994914619570
         H           -0.726989000000    -0.492791000000     2.454595000000     1.007825032230
         H           -1.835080000000     0.452199000000     3.109521000000     1.007825032230
         O            0.747393000000     3.065685000000    -1.348131000000    15.994914619570
         H            0.606392000000     2.246399000000    -0.896833000000     1.007825032230
         H            0.782266000000     3.812533000000    -0.695899000000     1.007825032230

  Charge       = 0
  Multiplicity = 1
  Basis Set: AUG-CC-PVTZ
    Blend: AUG-CC-PVTZ
  Basis Set: (AUG-CC-PVTZ AUX)
    Blend: AUG-CC-PVTZ-JKFIT

    Orbital Energies [Eh]
    ---------------------

    Doubly Occupied:

       1A    -20.603970     2A    -20.593412     3A    -20.592027
       4A    -20.587855     5A    -20.582446     6A    -20.575590
       7A     -1.377202     8A     -1.368432     9A     -1.365097
      10A     -1.361202    11A     -1.360214    12A     -1.355429
      13A     -0.755444    14A     -0.750465    15A     -0.738387
      16A     -0.731421    17A     -0.720307    18A     -0.714140
      19A     -0.606904    20A     -0.605203    21A     -0.598455
      22A     -0.591744    23A     -0.589935    24A     -0.587411
      25A     -0.543718    26A     -0.532467    27A     -0.528949
      28A     -0.527251    29A     -0.522816    30A     -0.514895

  @DF-RHF Final Energy:  -456.33864525481027

   => Energetics <=

    Nuclear Repulsion Energy =            220.1913022281954966
    One-Electron Energy =               -1067.2943132492855511
    Two-Electron Energy =                 390.7643657662798091
    Total Energy =                       -456.3386452548102739
 Dipole X            :         18.5491889          -20.3774289           -1.8282400
 Dipole Y            :        -74.4419195           75.0817197            0.6398002
 Dipole Z            :        -27.2509037           27.3109720            0.0600684
 Magnitude           :                                                    1.9378891

    SAPT Results
  --------------------------------------------------------------------------------------------------------
    Electrostatics               -109.96337704 [mEh]     -69.00306086 [kcal/mol]    -288.70880665 [kJ/mol]
      Elst10,r                   -110.30023711 [mEh]     -69.21444375 [kcal/mol]    -289.59323264 [kJ/mol]
      Elst12,r                      0.33686007 [mEh]       0.21138288 [kcal/mol]       0.88442599 [kJ/mol]

    Exchange                       77.40746868 [mEh]      48.57391994 [kcal/mol]     203.23328102 [kJ/mol]
      Exch10                       68.19600890 [mEh]      42.79364166 [kcal/mol]     179.04859669 [kJ/mol]
      Exch10(S^2)                  67.55388947 [mEh]      42.39070563 [kcal/mol]     177.36271236 [kJ/mol]
      Exch11(S^2)                   3.53027976 [mEh]       2.21528399 [kcal/mol]       9.26874823 [kJ/mol]
      Exch12(S^2)                   5.68118003 [mEh]       3.56499429 [kcal/mol]      14.91593610 [kJ/mol]

    Induction                     -35.31270364 [mEh]     -22.15905608 [kcal/mol]     -92.71349065 [kJ/mol]
      Ind20,r                     -59.16549659 [mEh]     -37.12690963 [kcal/mol]    -155.33898989 [kJ/mol]
      Ind22                        -8.17161182 [mEh]      -5.12776383 [kcal/mol]     -21.45456388 [kJ/mol]
      Exch-Ind20,r                 34.80422349 [mEh]      21.83997997 [kcal/mol]      91.37847619 [kJ/mol]
      Exch-Ind22                    4.80696725 [mEh]       3.01641749 [kcal/mol]      12.62069076 [kJ/mol]
      delta HF,r (2)               -7.58678597 [mEh]      -4.76078007 [kcal/mol]     -19.91910382 [kJ/mol]

    Dispersion                    -30.61697461 [mEh]     -19.21244163 [kcal/mol]     -80.38485576 [kJ/mol]
      Disp20                      -34.16163581 [mEh]     -21.43675011 [kcal/mol]     -89.69136247 [kJ/mol]
      Disp21                        2.31939801 [mEh]       1.45544422 [kcal/mol]       6.08957863 [kJ/mol]
      Disp22 (SDQ)                 -0.10481642 [mEh]      -0.06577330 [kcal/mol]      -0.27519547 [kJ/mol]
      Disp22 (T)                   -5.48998714 [mEh]      -3.44501894 [kcal/mol]     -14.41395925 [kJ/mol]
      Est. Disp22 (T)              -6.31431560 [mEh]      -3.96229286 [kcal/mol]     -16.57823332 [kJ/mol]
      Exch-Disp20                   7.64439521 [mEh]       4.79693042 [kcal/mol]      20.07035686 [kJ/mol]

  Total HF                        -74.05228728 [mEh]     -46.46851182 [kcal/mol]    -194.42425347 [kJ/mol]
  Total SAPT0                    -100.56952788 [mEh]     -63.10833152 [kcal/mol]    -264.04525908 [kJ/mol]
  Total SAPT2                     -94.38585261 [mEh]     -59.22801670 [kcal/mol]    -247.81002188 [kJ/mol]
  Total SAPT2+                    -98.48558662 [mEh]     -61.80063863 [kcal/mol]    -258.57387204 [kJ/mol]

  Special recipe for scaled SAPT0 (see Manual):
    Electrostatics sSAPT0        -110.30023711 [mEh]     -69.21444375 [kcal/mol]    -289.59323264 [kJ/mol]
    Exchange sSAPT0                68.19600890 [mEh]      42.79364166 [kcal/mol]     179.04859669 [kJ/mol]
    Induction sSAPT0              -30.94612254 [mEh]     -19.41898507 [kcal/mol]     -81.24903353 [kJ/mol]
    Dispersion sSAPT0             -26.29717539 [mEh]     -16.50172669 [kcal/mol]     -69.04322447 [kJ/mol]
  Total sSAPT0                    -99.34752614 [mEh]     -62.34151385 [kcal/mol]    -260.83689395 [kJ/mol]
  --------------------------------------------------------------------------------------------------------

*** Psi4 exiting successfully. Buy a developer a beer!
