                               Psi4 1.8.2 release

  ==> Input File <==

--------------------------------------------------------------------------
MEMORY 60 GB

molecule dimer {
-1 1
Br     0.000000     0.000000     0.000000
--
0 1
O      2.005998     2.469794    -1.548747
H      2.809869     2.228331    -1.965091
H      1.560168     1.628217    -1.200553
O      0.529123     3.007364     1.321262
H      1.470211     3.161375     1.107058
H      0.395327     2.119154     0.958626
O     -1.660321     0.052137    -3.166204
H     -2.229712     0.623741    -2.655572
H     -1.973837     0.013299    -4.074220
O      2.794752     0.356441     1.755247
H      3.260746    -0.479172     1.544679
H      1.859188     0.213200     1.467202

units ang
no_reorient
no_com
symmetry c1
}

set {
basis        aug-cc-pVTZ
scf_type     df
}

energy("sapt2+")
--------------------------------------------------------------------------

  //              Dimer HF             //
    Molecular point group: c1
  Charge       = -1
  Multiplicity = 1
  Basis Set: AUG-CC-PVTZ
    Blend: AUG-CC-PVTZ
  Basis Set: (AUG-CC-PVTZ AUX)
    Blend: AUG-CC-PVTZ-JKFIT
  @DF-RHF Final Energy: -2876.79613138014156
    Total Energy =                      -2876.7961313801411052
 Dipole X            :        -69.7572631           68.9908319           -0.7664312
 Dipole Y            :       -109.0204228          106.9472227           -2.0732001
 Dipole Z            :         32.6471522          -33.8741099           -1.2269577
 Magnitude           :                                                    2.5280428
  //            Monomer A HF           //
    Molecular point group: c1
  Multiplicity = 1
  Basis Set: AUG-CC-PVTZ
    Blend: AUG-CC-PVTZ
  Basis Set: (AUG-CC-PVTZ AUX)
    Blend: AUG-CC-PVTZ-JKFIT
  @DF-RHF Final Energy: -2572.53371341305683
    Total Energy =                      -2572.5337134130568302
  //            Monomer B HF           //
    Molecular point group: c1

    Geometry (in Angstrom), charge = 0, multiplicity = 1:

       Center              X                  Y                   Z               Mass
    ------------   -----------------  -----------------  -----------------  -----------------
      Gh(BR)          0.000000000000     0.000000000000     0.000000000000    78.918337600000
         O            2.005998000000     2.469794000000    -1.548747000000    15.994914619570
         H            2.809869000000     2.228331000000    -1.965091000000     1.007825032230
         H            1.560168000000     1.628217000000    -1.200553000000     1.007825032230
         O            0.529123000000     3.007364000000     1.321262000000    15.994914619570
         H            1.470211000000     3.161375000000     1.107058000000     1.007825032230
         H            0.395327000000     2.119154000000     0.958626000000     1.007825032230
         O           -1.660321000000     0.052137000000    -3.166204000000    15.994914619570
         H           -2.229712000000     0.623741000000    -2.655572000000     1.007825032230
         H           -1.973837000000     0.013299000000    -4.074220000000     1.007825032230
         O            2.794752000000     0.356441000000     1.755247000000    15.994914619570
         H            3.260746000000    -0.479172000000     1.544679000000     1.007825032230
         H            1.859188000000     0.213200000000     1.467202000000     1.007825032230

  Charge       = 0
  Multiplicity = 1
  Basis Set: AUG-CC-PVTZ
    Blend: AUG-CC-PVTZ
  Basis Set: (AUG-CC-PVTZ AUX)
    Blend: AUG-CC-PVTZ-JKFIT

    Orbital Energies [Eh]
    ---------------------

    Doubly Occupied:

       1A    -20.584416     2A    -20.572244     3A    -20.571776
       4A    -20.558115     5A     -1.356452     6A     -1.352461
       7A     -1.347589     8A     -1.335022     9A     -0.733739
      10A     -0.721214    11A     -0.717653    12A     -0.690625
      13A     -0.590679    14A     -0.582618    15A     -0.578859
      16A     -0.575329    17A     -0.521171    18A     -0.515841
      19A     -0.511753    20A     -0.496411

  @DF-RHF Final Energy:  -304.23017293652885

   => Energetics <=

    Nuclear Repulsion Energy =            109.5764708958850093
    One-Electron Energy =                -637.7853501888273513
    Two-Electron Energy =                 223.9787063564135110
    Total Energy =                       -304.2301729365288452
 Dipole X            :        -69.0477925           68.9908319           -0.0569606
 Dipole Y            :       -108.3710859          106.9472227           -1.4238632
 Dipole Z            :         32.8271271          -33.8741099           -1.0469828
 Magnitude           :                                                    1.7682771

    SAPT Results
  --------------------------------------------------------------------------------------------------------
    Electrostatics                -55.93473226 [mEh]     -35.09957441 [kcal/mol]    -146.85661932 [kJ/mol]
      Elst10,r                    -54.64237130 [mEh]     -34.28860566 [kcal/mol]    -143.46352609 [kJ/mol]
      Elst12,r                     -1.29236096 [mEh]      -0.81096875 [kcal/mol]      -3.39309323 [kJ/mol]

    Exchange                       53.55768871 [mEh]      33.60795706 [kcal/mol]     140.61569233 [kJ/mol]
      Exch10                       47.81760486 [mEh]      30.00600006 [kcal/mol]     125.54510427 [kJ/mol]
      Exch10(S^2)                  47.11512046 [mEh]      29.56518445 [kcal/mol]     123.70073173 [kJ/mol]
      Exch11(S^2)                   1.92128459 [mEh]       1.20562428 [kcal/mol]       5.04433199 [kJ/mol]
      Exch12(S^2)                   3.81879926 [mEh]       2.39633271 [kcal/mol]      10.02625607 [kJ/mol]

    Induction                     -27.58171630 [mEh]     -17.30778828 [kcal/mol]     -72.41578617 [kJ/mol]
      Ind20,r                     -43.62049778 [mEh]     -27.37227561 [kcal/mol]    -114.52560115 [kJ/mol]
      Ind22                        -5.40777773 [mEh]      -3.39343176 [kcal/mol]     -14.19811847 [kJ/mol]
      Exch-Ind20,r                 26.18567982 [mEh]      16.43176216 [kcal/mol]      68.75049289 [kJ/mol]
      Exch-Ind22                    3.24632554 [mEh]       2.03710003 [kcal/mol]       8.52322654 [kJ/mol]
      delta HF,r (2)               -7.98544615 [mEh]      -5.01094311 [kcal/mol]     -20.96578599 [kJ/mol]

    Dispersion                    -19.60741063 [mEh]     -12.30383593 [kcal/mol]     -51.47924951 [kJ/mol]
      Disp20                      -22.28343989 [mEh]     -13.98306964 [kcal/mol]     -58.50516337 [kJ/mol]
      Disp21                        1.68369923 [mEh]       1.05653721 [kcal/mol]       4.42055171 [kJ/mol]
      Disp22 (SDQ)                 -0.02902061 [mEh]      -0.01821071 [kcal/mol]      -0.07619359 [kJ/mol]
      Disp22 (T)                   -3.51866981 [mEh]      -2.20799864 [kcal/mol]      -9.23826631 [kJ/mol]
      Est. Disp22 (T)              -4.04415160 [mEh]      -2.53774344 [kcal/mol]     -10.61791857 [kJ/mol]
      Exch-Disp20                   5.06550225 [mEh]       3.17865065 [kcal/mol]      13.29947432 [kJ/mol]

  Total HF                        -32.24503056 [mEh]     -20.23406216 [kcal/mol]     -84.65931606 [kJ/mol]
  Total SAPT0                     -49.46296820 [mEh]     -31.03848115 [kcal/mol]    -129.86500511 [kJ/mol]
  Total SAPT2                     -47.17669750 [mEh]     -29.60382462 [kcal/mol]    -123.86240222 [kJ/mol]
  Total SAPT2+                    -49.56617048 [mEh]     -31.10324156 [kcal/mol]    -130.13596268 [kJ/mol]

  Special recipe for scaled SAPT0 (see Manual):
    Electrostatics sSAPT0         -54.64237130 [mEh]     -34.28860566 [kcal/mol]    -143.46352609 [kJ/mol]
    Exchange sSAPT0                47.81760486 [mEh]      30.00600006 [kcal/mol]     125.54510427 [kJ/mol]
    Induction sSAPT0              -24.23143151 [mEh]     -15.20545284 [kcal/mol]     -63.61961466 [kJ/mol]
    Dispersion sSAPT0             -16.98796331 [mEh]     -10.66010792 [kcal/mol]     -44.60189153 [kJ/mol]
  Total sSAPT0                    -48.04416126 [mEh]     -30.14816635 [kcal/mol]    -126.13992801 [kJ/mol]
  --------------------------------------------------------------------------------------------------------

*** Psi4 exiting successfully. Buy a developer a beer!
