                               Psi4 1.8.2 release

  ==> Input File <==

--------------------------------------------------------------------------
MEMORY 60 GB

molecule dimer {
-1 1
Br     0.000000     0.000000     0.000000
--
0 1
O      2.325004    -1.298634    -2.213133
H      2.857483    -1.255111    -1.413986
H      2.313941    -0.417505    -2.644260
O     -1.248098     0.645875    -3.275602
H     -0.485089     1.037878    -2.846501
H     -1.311819    -0.293005    -2.968019
O     -3.258963    -0.749716     1.164907
H     -2.392241    -0.545925     0.838651
H     -3.799812    -0.010076     0.950904
O     -1.050932     1.717097     2.665447
H     -0.953034     1.208500     1.826221
H     -1.159093     2.719158     2.537031
O      0.684386     2.811876    -1.890060
H      1.381221     2.308150    -2.327268
H      0.564161     2.487954    -0.988929

units ang
no_reorient
no_com
symmetry c1
}

set {
basis        aug-cc-pVTZ
scf_type     df
}

energy("sapt2+")
--------------------------------------------------------------------------

  //              Dimer HF             //
    Molecular point group: c1
  Charge       = -1
  Multiplicity = 1
  Basis Set: AUG-CC-PVTZ
    Blend: AUG-CC-PVTZ
  Basis Set: (AUG-CC-PVTZ AUX)
    Blend: AUG-CC-PVTZ-JKFIT
  @DF-RHF Final Energy: -2952.86013946022513
    Total Energy =                      -2952.8601394602246728
 Dipole X            :         45.9209311          -44.1687690            1.7521621
 Dipole Y            :        -60.7420618           60.9474508            0.2053890
 Dipole Z            :         67.0045025          -66.9410611            0.0634414
 Magnitude           :                                                    1.7652993
  //            Monomer A HF           //
    Molecular point group: c1
  Multiplicity = 1
  Basis Set: AUG-CC-PVTZ
    Blend: AUG-CC-PVTZ
  Basis Set: (AUG-CC-PVTZ AUX)
    Blend: AUG-CC-PVTZ-JKFIT
  @DF-RHF Final Energy: -2572.53371802777656
    Total Energy =                      -2572.5337180277761036
  //            Monomer B HF           //
    Molecular point group: c1

    Geometry (in Angstrom), charge = 0, multiplicity = 1:

       Center              X                  Y                   Z               Mass
    ------------   -----------------  -----------------  -----------------  -----------------
      Gh(BR)          0.000000000000     0.000000000000     0.000000000000    78.918337600000
         O            2.325004000000    -1.298634000000    -2.213133000000    15.994914619570
         H            2.857483000000    -1.255111000000    -1.413986000000     1.007825032230
         H            2.313941000000    -0.417505000000    -2.644260000000     1.007825032230
         O           -1.248098000000     0.645875000000    -3.275602000000    15.994914619570
         H           -0.485089000000     1.037878000000    -2.846501000000     1.007825032230
         H           -1.311819000000    -0.293005000000    -2.968019000000     1.007825032230
         O           -3.258963000000    -0.749716000000     1.164907000000    15.994914619570
         H           -2.392241000000    -0.545925000000     0.838651000000     1.007825032230
         H           -3.799812000000    -0.010076000000     0.950904000000     1.007825032230
         O           -1.050932000000     1.717097000000     2.665447000000    15.994914619570
         H           -0.953034000000     1.208500000000     1.826221000000     1.007825032230
         H           -1.159093000000     2.719158000000     2.537031000000     1.007825032230
         O            0.684386000000     2.811876000000    -1.890060000000    15.994914619570
         H            1.381221000000     2.308150000000    -2.327268000000     1.007825032230
         H            0.564161000000     2.487954000000    -0.988929000000     1.007825032230

  Charge       = 0
  Multiplicity = 1
  Basis Set: AUG-CC-PVTZ
    Blend: AUG-CC-PVTZ
  Basis Set: (AUG-CC-PVTZ AUX)
    Blend: AUG-CC-PVTZ-JKFIT

    Orbital Energies [Eh]
    ---------------------

    Doubly Occupied:

       1A    -20.600626     2A    -20.590648     3A    -20.585105
       4A    -20.568458     5A    -20.566686     6A     -1.381705
       7A     -1.366414     8A     -1.363338     9A     -1.341561
      10A     -1.341376    11A     -0.758174    12A     -0.742019
      13A     -0.733562    14A     -0.725220    15A     -0.713452
      16A     -0.607085    17A     -0.595341    18A     -0.588177
      19A     -0.576172    20A     -0.572226    21A     -0.541545
      22A     -0.530732    23A     -0.521206    24A     -0.512216
      25A     -0.506450

  @DF-RHF Final Energy:  -380.28412014912954

   => Energetics <=

    Nuclear Repulsion Energy =            157.5601088768846125
    One-Electron Energy =                -837.8294579311412917
    Two-Electron Energy =                 299.9852289051272010
    Total Energy =                       -380.2841201491295351
 Dipole X            :         45.5787211          -44.1687690            1.4099521
 Dipole Y            :        -60.2222316           60.9474508            0.7252192
 Dipole Z            :         67.0489382          -66.9410611            0.1078771
 Magnitude           :                                                    1.5891964

    SAPT Results
  --------------------------------------------------------------------------------------------------------
    Electrostatics                -67.15468242 [mEh]     -42.14019943 [kcal/mol]    -176.31459440 [kJ/mol]
      Elst10,r                    -67.10276854 [mEh]     -42.10762298 [kcal/mol]    -176.17829453 [kJ/mol]
      Elst12,r                     -0.05191388 [mEh]      -0.03257645 [kcal/mol]      -0.13629987 [kJ/mol]

    Exchange                       52.70536948 [mEh]      33.07311867 [kcal/mol]     138.37792851 [kJ/mol]
      Exch10                       46.31948682 [mEh]      29.06591680 [kcal/mol]     121.61179589 [kJ/mol]
      Exch10(S^2)                  45.88382488 [mEh]      28.79253481 [kcal/mol]     120.46796563 [kJ/mol]
      Exch11(S^2)                   1.89113820 [mEh]       1.18670714 [kcal/mol]       4.96518267 [kJ/mol]
      Exch12(S^2)                   4.49474446 [mEh]       2.82049473 [kcal/mol]      11.80094996 [kJ/mol]

    Induction                     -23.88976259 [mEh]     -14.99105235 [kcal/mol]     -62.72256303 [kJ/mol]
      Ind20,r                     -43.47348380 [mEh]     -27.28002294 [kcal/mol]    -114.13961598 [kJ/mol]
      Ind22                        -6.36136676 [mEh]      -3.99181791 [kcal/mol]     -16.70176614 [kJ/mol]
      Exch-Ind20,r                 27.26490524 [mEh]      17.10898634 [kcal/mol]      71.58399883 [kJ/mol]
      Exch-Ind22                    3.98960578 [mEh]       2.50351542 [kcal/mol]      10.47470852 [kJ/mol]
      delta HF,r (2)               -5.30942304 [mEh]      -3.33171326 [kcal/mol]     -13.93988826 [kJ/mol]

    Dispersion                    -21.65546573 [mEh]     -13.58900991 [kcal/mol]     -56.85641745 [kJ/mol]
      Disp20                      -24.10980538 [mEh]     -15.12913129 [kcal/mol]     -63.30028530 [kJ/mol]
      Disp21                        1.63138035 [mEh]       1.02370662 [kcal/mol]       4.28318851 [kJ/mol]
      Disp22 (SDQ)                 -0.18774209 [mEh]      -0.11780994 [kcal/mol]      -0.49291678 [kJ/mol]
      Disp22 (T)                   -3.86437309 [mEh]      -2.42493073 [kcal/mol]     -10.14591016 [kJ/mol]
      Est. Disp22 (T)              -4.50228739 [mEh]      -2.82522799 [kcal/mol]     -11.82075391 [kJ/mol]
      Exch-Disp20                   5.51298877 [mEh]       3.45945268 [kcal/mol]      14.47435003 [kJ/mol]

  Total HF                        -42.30128332 [mEh]     -26.54445604 [kcal/mol]    -111.06200405 [kJ/mol]
  Total SAPT0                     -60.89809992 [mEh]     -38.21413464 [kcal/mol]    -159.88793932 [kJ/mol]
  Total SAPT2                     -56.93589213 [mEh]     -35.72781171 [kcal/mol]    -149.48516418 [kJ/mol]
  Total SAPT2+                    -59.99454126 [mEh]     -37.64714301 [kcal/mol]    -157.51564637 [kJ/mol]

  Special recipe for scaled SAPT0 (see Manual):
    Electrostatics sSAPT0         -67.10276854 [mEh]     -42.10762298 [kcal/mol]    -176.17829453 [kJ/mol]
    Exchange sSAPT0                46.31948682 [mEh]      29.06591680 [kcal/mol]     121.61179589 [kJ/mol]
    Induction sSAPT0              -20.73397228 [mEh]     -13.01076403 [kcal/mol]     -54.43703671 [kJ/mol]
    Dispersion sSAPT0             -18.43828516 [mEh]     -11.57019862 [kcal/mol]     -48.40971102 [kJ/mol]
  Total sSAPT0                    -59.95553916 [mEh]     -37.62266883 [kcal/mol]    -157.41324637 [kJ/mol]
  --------------------------------------------------------------------------------------------------------

*** Psi4 exiting successfully. Buy a developer a beer!
