                               Psi4 1.8.2 release

  ==> Input File <==

--------------------------------------------------------------------------
MEMORY 60 GB

molecule dimer {
-1 1
Br     0.000000     0.000000     0.000000
--
0 1
O      1.511211    -0.168000    -2.972187
H      2.300196    -0.449638    -2.419504
H      0.943137     0.223193    -2.310831
O     -2.135097    -1.069176    -2.156148
H     -2.291668    -1.987712    -2.053824
H     -1.409818    -0.862642    -1.615508
O      1.040320     2.889251     1.678946
H      1.410094     3.396924     2.390933
H      0.075886     2.963889     1.828063
O     -1.696817    -2.672274     0.961891
H     -1.090811    -1.965370     1.008221
H     -2.536867    -2.318802     1.134748
O      1.036428    -2.376018     2.104145
H      1.818587    -2.060646     2.627672
H      0.759851    -1.655806     1.452707

units ang
no_reorient
no_com
symmetry c1
}

set {
basis        aug-cc-pVTZ
scf_type     df
}

energy("sapt2+")
--------------------------------------------------------------------------

  //              Dimer HF             //
    Molecular point group: c1
  Charge       = -1
  Multiplicity = 1
  Basis Set: AUG-CC-PVTZ
    Blend: AUG-CC-PVTZ
  Basis Set: (AUG-CC-PVTZ AUX)
    Blend: AUG-CC-PVTZ-JKFIT
  @DF-RHF Final Energy: -2952.85467717204529
    Total Energy =                      -2952.8546771720448305
 Dipole X            :          4.1183605           -3.7285298            0.3898307
 Dipole Y            :         62.1998171          -60.2564611            1.9433560
 Dipole Z            :          3.8563291           -1.9353573            1.9209717
 Magnitude           :                                                    2.7602052
  //            Monomer A HF           //
    Molecular point group: c1
  Multiplicity = 1
  Basis Set: AUG-CC-PVTZ
    Blend: AUG-CC-PVTZ
  Basis Set: (AUG-CC-PVTZ AUX)
    Blend: AUG-CC-PVTZ-JKFIT
  @DF-RHF Final Energy: -2572.53372769968382
    Total Energy =                      -2572.5337276996842775
  //            Monomer B HF           //
    Molecular point group: c1

    Geometry (in Angstrom), charge = 0, multiplicity = 1:

       Center              X                  Y                   Z               Mass
    ------------   -----------------  -----------------  -----------------  -----------------
      Gh(BR)          0.000000000000     0.000000000000     0.000000000000    78.918337600000
         O            1.511211000000    -0.168000000000    -2.972187000000    15.994914619570
         H            2.300196000000    -0.449638000000    -2.419504000000     1.007825032230
         H            0.943137000000     0.223193000000    -2.310831000000     1.007825032230
         O           -2.135097000000    -1.069176000000    -2.156148000000    15.994914619570
         H           -2.291668000000    -1.987712000000    -2.053824000000     1.007825032230
         H           -1.409818000000    -0.862642000000    -1.615508000000     1.007825032230
         O            1.040320000000     2.889251000000     1.678946000000    15.994914619570
         H            1.410094000000     3.396924000000     2.390933000000     1.007825032230
         H            0.075886000000     2.963889000000     1.828063000000     1.007825032230
         O           -1.696817000000    -2.672274000000     0.961891000000    15.994914619570
         H           -1.090811000000    -1.965370000000     1.008221000000     1.007825032230
         H           -2.536867000000    -2.318802000000     1.134748000000     1.007825032230
         O            1.036428000000    -2.376018000000     2.104145000000    15.994914619570
         H            1.818587000000    -2.060646000000     2.627672000000     1.007825032230
         H            0.759851000000    -1.655806000000     1.452707000000     1.007825032230

  Charge       = 0
  Multiplicity = 1
  Basis Set: AUG-CC-PVTZ
    Blend: AUG-CC-PVTZ
  Basis Set: (AUG-CC-PVTZ AUX)
    Blend: AUG-CC-PVTZ-JKFIT

    Orbital Energies [Eh]
    ---------------------

    Doubly Occupied:

       1A    -20.586264     2A    -20.585369     3A    -20.574018
       4A    -20.566880     5A    -20.558173     6A     -1.373269
       7A     -1.368664     8A     -1.361764     9A     -1.346518
      10A     -1.342232    11A     -0.751680    12A     -0.733100
      13A     -0.729194    14A     -0.710820    15A     -0.701866
      16A     -0.604232    17A     -0.591824    18A     -0.587067
      19A     -0.583059    20A     -0.578313    21A     -0.527888
      22A     -0.522906    23A     -0.514749    24A     -0.511372
      25A     -0.505584

  @DF-RHF Final Energy:  -380.28382761036005

   => Energetics <=

    Nuclear Repulsion Energy =            158.2422634259102381
    One-Electron Energy =                -839.4185686308705954
    Two-Electron Energy =                 300.8924775946003365
    Total Energy =                       -380.2838276103600492
 Dipole X            :          4.0631771           -3.7285298            0.3346473
 Dipole Y            :         61.5404341          -60.2564611            1.2839731
 Dipole Z            :          3.8576776           -1.9353573            1.9223202
 Magnitude           :                                                    2.3357848

    SAPT Results
  --------------------------------------------------------------------------------------------------------
    Electrostatics                -79.80020790 [mEh]     -50.07538646 [kcal/mol]    -209.51541696 [kJ/mol]
      Elst10,r                    -78.24889372 [mEh]     -49.10192212 [kcal/mol]    -205.44244216 [kJ/mol]
      Elst12,r                     -1.55131417 [mEh]      -0.97346434 [kcal/mol]      -4.07297480 [kJ/mol]

    Exchange                       79.85320064 [mEh]      50.10863991 [kcal/mol]     209.65454939 [kJ/mol]
      Exch10                       71.15523427 [mEh]      44.65058362 [kcal/mol]     186.81804185 [kJ/mol]
      Exch10(S^2)                  70.22320812 [mEh]      44.06572838 [kcal/mol]     184.37100752 [kJ/mol]
      Exch11(S^2)                   2.92535843 [mEh]       1.83569013 [kcal/mol]       7.68052750 [kJ/mol]
      Exch12(S^2)                   5.77260794 [mEh]       3.62236617 [kcal/mol]      15.15598005 [kJ/mol]

    Induction                     -32.96464353 [mEh]     -20.68562611 [kcal/mol]     -86.54865966 [kJ/mol]
      Ind20,r                     -61.58620728 [mEh]     -38.64592852 [kcal/mol]    -161.69456495 [kJ/mol]
      Ind22                        -8.39843437 [mEh]      -5.27009713 [kcal/mol]     -22.05008639 [kJ/mol]
      Exch-Ind20,r                 40.05311497 [mEh]      25.13370910 [kcal/mol]     105.15943886 [kJ/mol]
      Exch-Ind22                    5.46199339 [mEh]       3.42745260 [kcal/mol]      14.34046168 [kJ/mol]
      delta HF,r (2)               -8.49511024 [mEh]      -5.33076216 [kcal/mol]     -22.30390886 [kJ/mol]

    Dispersion                    -27.66226250 [mEh]     -17.35833178 [kcal/mol]     -72.62726019 [kJ/mol]
      Disp20                      -31.85959816 [mEh]     -19.99219968 [kcal/mol]     -83.64736344 [kJ/mol]
      Disp21                        2.37736126 [mEh]       1.49181671 [kcal/mol]       6.24176112 [kJ/mol]
      Disp22 (SDQ)                 -0.06954736 [mEh]      -0.04364162 [kcal/mol]      -0.18259656 [kJ/mol]
      Disp22 (T)                   -4.97665755 [mEh]      -3.12289976 [kcal/mol]     -13.06621260 [kJ/mol]
      Est. Disp22 (T)              -5.71552137 [mEh]      -3.58654381 [kcal/mol]     -15.00609929 [kJ/mol]
      Exch-Disp20                   7.60504313 [mEh]       4.77223661 [kcal/mol]      19.96703799 [kJ/mol]

  Total HF                        -37.12186200 [mEh]     -23.29432009 [kcal/mol]     -97.46343526 [kJ/mol]
  Total SAPT0                     -61.37641703 [mEh]     -38.51428315 [kcal/mol]    -161.14376072 [kJ/mol]
  Total SAPT2                     -57.16620581 [mEh]     -35.87233573 [kcal/mol]    -150.08985269 [kJ/mol]
  Total SAPT2+                    -60.57391328 [mEh]     -38.01070445 [kcal/mol]    -159.03678742 [kJ/mol]

  Special recipe for scaled SAPT0 (see Manual):
    Electrostatics sSAPT0         -78.24889372 [mEh]     -49.10192212 [kcal/mol]    -205.44244216 [kJ/mol]
    Exchange sSAPT0                71.15523427 [mEh]      44.65058362 [kcal/mol]     186.81804185 [kJ/mol]
    Induction sSAPT0              -28.41214681 [mEh]     -17.82889129 [kcal/mol]     -74.59608117 [kJ/mol]
    Dispersion sSAPT0             -23.94770814 [mEh]     -15.02741374 [kcal/mol]     -62.87469907 [kJ/mol]
  Total sSAPT0                    -59.45351440 [mEh]     -37.30764354 [kcal/mol]    -156.09518056 [kJ/mol]
  --------------------------------------------------------------------------------------------------------

*** Psi4 exiting successfully. Buy a developer a beer!
