                               Psi4 1.8.2 release

  ==> Input File <==

--------------------------------------------------------------------------
MEMORY 60 GB

molecule dimer {
-1 1
Br     0.000000     0.000000     0.000000
--
0 1
O     -2.018814     1.297243     2.271203
H     -1.624924     1.929481     2.858206
H     -1.319651     1.058009     1.655548
O      2.992256     0.142962     1.185442
H      2.076229    -0.027513     0.900949
H      3.011154     0.890364     1.822388
O      1.638357    -0.919045    -3.055647
H      2.042760    -0.288329    -3.647520
H      1.415696    -0.537243    -2.199502

units ang
no_reorient
no_com
symmetry c1
}

set {
basis        aug-cc-pVTZ
scf_type     df
}

energy("sapt2+")
--------------------------------------------------------------------------

  //              Dimer HF             //
    Molecular point group: c1
  Charge       = -1
  Multiplicity = 1
  Basis Set: AUG-CC-PVTZ
    Blend: AUG-CC-PVTZ
  Basis Set: (AUG-CC-PVTZ AUX)
    Blend: AUG-CC-PVTZ-JKFIT
  @DF-RHF Final Energy: -2800.74546724055381
    Total Energy =                      -2800.7454672405538076
 Dipole X            :        -50.2195655           50.0695334           -0.1500321
 Dipole Y            :        -12.4908039           13.5947823            1.1039784
 Dipole Z            :         -8.5397753            8.6890609            0.1492856
 Magnitude           :                                                    1.1240837
  //            Monomer A HF           //
    Molecular point group: c1
  Multiplicity = 1
  Basis Set: AUG-CC-PVTZ
    Blend: AUG-CC-PVTZ
  Basis Set: (AUG-CC-PVTZ AUX)
    Blend: AUG-CC-PVTZ-JKFIT
  @DF-RHF Final Energy: -2572.53370943135224
    Total Energy =                      -2572.5337094313526904
  //            Monomer B HF           //
    Molecular point group: c1

    Geometry (in Angstrom), charge = 0, multiplicity = 1:

       Center              X                  Y                   Z               Mass
    ------------   -----------------  -----------------  -----------------  -----------------
      Gh(BR)          0.000000000000     0.000000000000     0.000000000000    78.918337600000
         O           -2.018814000000     1.297243000000     2.271203000000    15.994914619570
         H           -1.624924000000     1.929481000000     2.858206000000     1.007825032230
         H           -1.319651000000     1.058009000000     1.655548000000     1.007825032230
         O            2.992256000000     0.142962000000     1.185442000000    15.994914619570
         H            2.076229000000    -0.027513000000     0.900949000000     1.007825032230
         H            3.011154000000     0.890364000000     1.822388000000     1.007825032230
         O            1.638357000000    -0.919045000000    -3.055647000000    15.994914619570
         H            2.042760000000    -0.288329000000    -3.647520000000     1.007825032230
         H            1.415696000000    -0.537243000000    -2.199502000000     1.007825032230

  Charge       = 0
  Multiplicity = 1
  Basis Set: AUG-CC-PVTZ
    Blend: AUG-CC-PVTZ
  Basis Set: (AUG-CC-PVTZ AUX)
    Blend: AUG-CC-PVTZ-JKFIT

    Orbital Energies [Eh]
    ---------------------

    Doubly Occupied:

       1A    -20.581858     2A    -20.576793     3A    -20.565953
       4A     -1.364449     5A     -1.352832     6A     -1.349106
       7A     -0.734357     8A     -0.730252     9A     -0.729490
      10A     -0.593960    11A     -0.583361    12A     -0.570694
      13A     -0.520338    14A     -0.520149    15A     -0.509756

  @DF-RHF Final Energy:  -228.17539150272600

   => Energetics <=

    Nuclear Repulsion Energy =             57.3992848176112034
    One-Electron Energy =                -428.5826463738796406
    Two-Electron Energy =                 143.0079700535424365
    Total Energy =                       -228.1753915027260007
 Dipole X            :        -49.7956194           50.0695334            0.2739140
 Dipole Y            :        -12.2644793           13.5947823            1.3303030
 Dipole Z            :         -8.2816086            8.6890609            0.4074523
 Magnitude           :                                                    1.4180100

    SAPT Results
  --------------------------------------------------------------------------------------------------------
    Electrostatics                -61.46355222 [mEh]     -38.56896131 [kcal/mol]    -161.37253411 [kJ/mol]
      Elst10,r                    -60.88479037 [mEh]     -38.20578277 [kcal/mol]    -159.85299511 [kJ/mol]
      Elst12,r                     -0.57876184 [mEh]      -0.36317854 [kcal/mol]      -1.51953901 [kJ/mol]

    Exchange                       51.80333570 [mEh]      32.50708392 [kcal/mol]     136.00963913 [kJ/mol]
      Exch10                       46.61944025 [mEh]      29.25414042 [kcal/mol]     122.39932352 [kJ/mol]
      Exch10(S^2)                  46.05378460 [mEh]      28.89918614 [kcal/mol]     120.91419480 [kJ/mol]
      Exch11(S^2)                   1.86288710 [mEh]       1.16897930 [kcal/mol]       4.89100940 [kJ/mol]
      Exch12(S^2)                   3.32100834 [mEh]       2.08396420 [kcal/mol]       8.71930621 [kJ/mol]

    Induction                     -23.89180112 [mEh]     -14.99233155 [kcal/mol]     -62.72791521 [kJ/mol]
      Ind20,r                     -40.71167319 [mEh]     -25.54696062 [kcal/mol]    -106.88848324 [kJ/mol]
      Ind22                        -4.81927350 [mEh]      -3.02413978 [kcal/mol]     -12.65300084 [kJ/mol]
      Exch-Ind20,r                 25.58319233 [mEh]      16.05369556 [kcal/mol]      67.16866222 [kJ/mol]
      Exch-Ind22                    3.02842873 [mEh]       1.90036772 [kcal/mol]       7.95113855 [kJ/mol]
      delta HF,r (2)               -6.97247549 [mEh]      -4.37529443 [kcal/mol]     -18.30623189 [kJ/mol]

    Dispersion                    -17.24857253 [mEh]     -10.82364267 [kcal/mol]     -45.28612093 [kJ/mol]
      Disp20                      -19.73284825 [mEh]     -12.38254922 [kcal/mol]     -51.80858593 [kJ/mol]
      Disp21                        1.21179943 [mEh]       0.76041562 [kcal/mol]       3.18157897 [kJ/mol]
      Disp22 (SDQ)                  0.09105725 [mEh]       0.05713929 [kcal/mol]       0.23907079 [kJ/mol]
      Disp22 (T)                   -3.00454675 [mEh]      -1.88538155 [kcal/mol]      -7.88843640 [kJ/mol]
      Est. Disp22 (T)              -3.47095959 [mEh]      -2.17806002 [kcal/mol]      -9.11300314 [kJ/mol]
      Exch-Disp20                   4.65237862 [mEh]       2.91941166 [kcal/mol]      12.21481839 [kJ/mol]

  Total HF                        -36.36630648 [mEh]     -22.82020184 [kcal/mol]     -95.47972450 [kJ/mol]
  Total SAPT0                     -51.44677610 [mEh]     -32.28333940 [kcal/mol]    -135.07349204 [kJ/mol]
  Total SAPT2                     -48.63248727 [mEh]     -30.51734650 [kcal/mol]    -127.68457774 [kJ/mol]
  Total SAPT2+                    -50.80059017 [mEh]     -31.87785160 [kcal/mol]    -133.37693112 [kJ/mol]

  Special recipe for scaled SAPT0 (see Manual):
    Electrostatics sSAPT0         -60.88479037 [mEh]     -38.20578277 [kcal/mol]    -159.85299511 [kJ/mol]
    Exchange sSAPT0                46.61944025 [mEh]      29.25414042 [kcal/mol]     122.39932352 [kJ/mol]
    Induction sSAPT0              -21.14665376 [mEh]     -13.26972558 [kcal/mol]     -55.52053181 [kJ/mol]
    Dispersion sSAPT0             -14.90692690 [mEh]      -9.35423785 [kcal/mol]     -39.13813118 [kJ/mol]
  Total sSAPT0                    -50.31893078 [mEh]     -31.57560578 [kcal/mol]    -132.11233457 [kJ/mol]
  --------------------------------------------------------------------------------------------------------

*** Psi4 exiting successfully. Buy a developer a beer!
