                               Psi4 1.8.2 release

  ==> Input File <==

--------------------------------------------------------------------------
MEMORY 60 GB

molecule dimer {
-1 1
Br     0.000000     0.000000     0.000000
--
0 1
O     -1.240886    -3.182298    -0.315482
H     -1.336837    -3.164388     0.618207
H     -0.845413    -2.278598    -0.523277
O     -0.972663     2.731075    -1.695096
H     -0.675308     1.871896    -2.024684
H     -1.748117     2.595633    -1.153655
O      0.238220    -1.724367     3.124076
H      0.205817    -1.206054     2.262866
H      1.175013    -1.881560     3.293870
O     -2.901260    -1.114093     1.330561
H     -2.382813    -1.711812     1.788198
H     -2.332582    -0.944358     0.558417
O     -2.124030     2.379906     1.059776
H     -1.431709     1.833183     0.702258
H     -2.285508     2.097630     2.002058
O      2.270799    -0.304696    -2.751069
H      1.469455     0.170842    -2.962831
H      2.050684    -0.944818    -2.039366

units ang
no_reorient
no_com
symmetry c1
}

set {
basis        aug-cc-pVTZ
scf_type     df
}

energy("sapt2+")
--------------------------------------------------------------------------

  //              Dimer HF             //
    Molecular point group: c1
  Charge       = -1
  Multiplicity = 1
  Basis Set: AUG-CC-PVTZ
    Blend: AUG-CC-PVTZ
  Basis Set: (AUG-CC-PVTZ AUX)
    Blend: AUG-CC-PVTZ-JKFIT
  @DF-RHF Final Energy: -3028.93929320421194
    Total Energy =                      -3028.9392932042119355
 Dipole X            :         88.1935791          -86.8818178            1.3117614
 Dipole Y            :         24.7081234          -25.0921388           -0.3840154
 Dipole Z            :        -15.5561933           16.1461772            0.5899839
 Magnitude           :                                                    1.4887131
  //            Monomer A HF           //
    Molecular point group: c1
  Multiplicity = 1
  Basis Set: AUG-CC-PVTZ
    Blend: AUG-CC-PVTZ
  Basis Set: (AUG-CC-PVTZ AUX)
    Blend: AUG-CC-PVTZ-JKFIT
  @DF-RHF Final Energy: -2572.53373239102166
    Total Energy =                      -2572.5337323910212035
  //            Monomer B HF           //
    Molecular point group: c1

    Geometry (in Angstrom), charge = 0, multiplicity = 1:

       Center              X                  Y                   Z               Mass
    ------------   -----------------  -----------------  -----------------  -----------------
      Gh(BR)          0.000000000000     0.000000000000     0.000000000000    78.918337600000
         O           -1.240886000000    -3.182298000000    -0.315482000000    15.994914619570
         H           -1.336837000000    -3.164388000000     0.618207000000     1.007825032230
         H           -0.845413000000    -2.278598000000    -0.523277000000     1.007825032230
         O           -0.972663000000     2.731075000000    -1.695096000000    15.994914619570
         H           -0.675308000000     1.871896000000    -2.024684000000     1.007825032230
         H           -1.748117000000     2.595633000000    -1.153655000000     1.007825032230
         O            0.238220000000    -1.724367000000     3.124076000000    15.994914619570
         H            0.205817000000    -1.206054000000     2.262866000000     1.007825032230
         H            1.175013000000    -1.881560000000     3.293870000000     1.007825032230
         O           -2.901260000000    -1.114093000000     1.330561000000    15.994914619570
         H           -2.382813000000    -1.711812000000     1.788198000000     1.007825032230
         H           -2.332582000000    -0.944358000000     0.558417000000     1.007825032230
         O           -2.124030000000     2.379906000000     1.059776000000    15.994914619570
         H           -1.431709000000     1.833183000000     0.702258000000     1.007825032230
         H           -2.285508000000     2.097630000000     2.002058000000     1.007825032230
         O            2.270799000000    -0.304696000000    -2.751069000000    15.994914619570
         H            1.469455000000     0.170842000000    -2.962831000000     1.007825032230
         H            2.050684000000    -0.944818000000    -2.039366000000     1.007825032230

  Charge       = 0
  Multiplicity = 1
  Basis Set: AUG-CC-PVTZ
    Blend: AUG-CC-PVTZ
  Basis Set: (AUG-CC-PVTZ AUX)
    Blend: AUG-CC-PVTZ-JKFIT

    Orbital Energies [Eh]
    ---------------------

    Doubly Occupied:

       1A    -20.607469     2A    -20.602463     3A    -20.589698
       4A    -20.588773     5A    -20.584437     6A    -20.576756
       7A     -1.390763     8A     -1.378736     9A     -1.375253
      10A     -1.366442    11A     -1.364835    12A     -1.356751
      13A     -0.747082    14A     -0.746242    15A     -0.740583
      16A     -0.737041    17A     -0.734398    18A     -0.722772
      19A     -0.630375    20A     -0.613743    21A     -0.605172
      22A     -0.596997    23A     -0.594496    24A     -0.585762
      25A     -0.547152    26A     -0.543541    27A     -0.531429
      28A     -0.528625    29A     -0.524197    30A     -0.518709

  @DF-RHF Final Energy:  -456.33635408869554

   => Energetics <=

    Nuclear Repulsion Energy =            228.3329894142409273
    One-Electron Energy =               -1083.2772929629240934
    Two-Electron Energy =                 398.6079494599875943
    Total Energy =                       -456.3363540886955434
 Dipole X            :         87.6623782          -86.8818178            0.7805604
 Dipole Y            :         24.2833847          -25.0921388           -0.8087540
 Dipole Z            :        -15.3114030           16.1461772            0.8347742
 Magnitude           :                                                    1.4000734

    SAPT Results
  --------------------------------------------------------------------------------------------------------
    Electrostatics               -105.56020385 [mEh]     -66.24002797 [kcal/mol]    -277.14827702 [kJ/mol]
      Elst10,r                   -106.29563610 [mEh]     -66.70151867 [kcal/mol]    -279.07915413 [kJ/mol]
      Elst12,r                      0.73543225 [mEh]       0.46149071 [kcal/mol]       1.93087712 [kJ/mol]

    Exchange                       74.21685306 [mEh]      46.57177841 [kcal/mol]     194.85632086 [kJ/mol]
      Exch10                       64.81304163 [mEh]      40.67079764 [kcal/mol]     170.16661734 [kJ/mol]
      Exch10(S^2)                  64.14665347 [mEh]      40.25263277 [kcal/mol]     168.41701549 [kJ/mol]
      Exch11(S^2)                   3.46928953 [mEh]       2.17701205 [kcal/mol]       9.10861841 [kJ/mol]
      Exch12(S^2)                   5.93452190 [mEh]       3.72396872 [kcal/mol]      15.58108511 [kJ/mol]

    Induction                     -31.08005638 [mEh]     -19.50302983 [kcal/mol]     -81.60067680 [kJ/mol]
      Ind20,r                     -57.83330737 [mEh]     -36.29094828 [kcal/mol]    -151.84132759 [kJ/mol]
      Ind22                        -9.08172507 [mEh]      -5.69886852 [kcal/mol]     -23.84406589 [kJ/mol]
      Exch-Ind20,r                 36.46244231 [mEh]      22.88052799 [kcal/mol]      95.73212910 [kJ/mol]
      Exch-Ind22                    5.72579871 [mEh]       3.59299293 [kcal/mol]      15.03308243 [kJ/mol]
      delta HF,r (2)               -6.35326496 [mEh]      -3.98673395 [kcal/mol]     -16.68049485 [kJ/mol]

    Dispersion                    -29.58651560 [mEh]     -18.56581883 [kcal/mol]     -77.67938600 [kJ/mol]
      Disp20                      -33.18018907 [mEh]     -20.82088298 [kcal/mol]     -87.11457439 [kJ/mol]
      Disp21                        2.43379246 [mEh]       1.52722783 [kcal/mol]       6.38992123 [kJ/mol]
      Disp22 (SDQ)                 -0.30908085 [mEh]      -0.19395116 [kcal/mol]      -0.81149166 [kJ/mol]
      Disp22 (T)                   -5.39959430 [mEh]      -3.38829658 [kcal/mol]     -14.17663289 [kJ/mol]
      Est. Disp22 (T)              -6.22464376 [mEh]      -3.90602293 [kcal/mol]     -16.34279993 [kJ/mol]
      Exch-Disp20                   7.69360561 [mEh]       4.82781041 [kcal/mol]      20.19955874 [kJ/mol]

  Total HF                        -69.20672449 [mEh]     -43.42787527 [kcal/mol]    -181.70223013 [kJ/mol]
  Total SAPT0                     -94.69330795 [mEh]     -59.42094784 [kcal/mol]    -248.61724578 [kJ/mol]
  Total SAPT2                     -87.90999063 [mEh]     -55.16435196 [kcal/mol]    -230.80764860 [kJ/mol]
  Total SAPT2+                    -92.00992277 [mEh]     -57.73709822 [kcal/mol]    -241.57201895 [kJ/mol]

  Special recipe for scaled SAPT0 (see Manual):
    Electrostatics sSAPT0        -106.29563610 [mEh]     -66.70151867 [kcal/mol]    -279.07915413 [kJ/mol]
    Exchange sSAPT0                64.81304163 [mEh]      40.67079764 [kcal/mol]     170.16661734 [kJ/mol]
    Induction sSAPT0              -26.57591259 [mEh]     -16.67663693 [kcal/mol]     -69.77504890 [kJ/mol]
    Dispersion sSAPT0             -25.24430863 [mEh]     -15.84104282 [kcal/mol]     -66.27892317 [kJ/mol]
  Total sSAPT0                    -93.30281569 [mEh]     -58.54840078 [kcal/mol]    -244.96650886 [kJ/mol]
  --------------------------------------------------------------------------------------------------------

*** Psi4 exiting successfully. Buy a developer a beer!
