                               Psi4 1.8.2 release

  ==> Input File <==

--------------------------------------------------------------------------
MEMORY 60 GB

molecule dimer {
-1 1
Br     0.000000     0.000000     0.000000
--
0 1
O     -2.333005    -2.573527    -0.291127
H     -3.133171    -2.528310     0.371069
H     -1.787717    -1.837861    -0.137174
O      1.371021     2.985621    -0.728227
H      1.616172     3.427381     0.066995
H      1.180208     2.097681    -0.432288
O     -2.377910     2.369996     0.456820
H     -1.695206     2.554222     1.124779
H     -1.990682     1.663103    -0.153605
O     -2.461469    -0.687997     2.047974
H     -1.760234    -0.273058     1.493838
H     -3.296296    -0.283233     1.747665
O     -0.226095     0.748349    -3.395531
H      0.694620     0.580593    -3.071989
H     -0.938329     0.679073    -2.701236

units ang
no_reorient
no_com
symmetry c1
}

set {
basis        aug-cc-pVTZ
scf_type     df
}

energy("sapt2+")
--------------------------------------------------------------------------

  //              Dimer HF             //
    Molecular point group: c1
  Charge       = -1
  Multiplicity = 1
  Basis Set: AUG-CC-PVTZ
    Blend: AUG-CC-PVTZ
  Basis Set: (AUG-CC-PVTZ AUX)
    Blend: AUG-CC-PVTZ-JKFIT
  @DF-RHF Final Energy: -2952.86214069846073
    Total Energy =                      -2952.8621406984607347
 Dipole X            :        113.3784618         -112.1180161            1.2604458
 Dipole Y            :        -54.4706491           54.4602572           -0.0103919
 Dipole Z            :         33.5002258          -32.0737055            1.4265203
 Magnitude           :                                                    1.9036259
  //            Monomer A HF           //
    Molecular point group: c1
  Multiplicity = 1
  Basis Set: AUG-CC-PVTZ
    Blend: AUG-CC-PVTZ
  Basis Set: (AUG-CC-PVTZ AUX)
    Blend: AUG-CC-PVTZ-JKFIT
  @DF-RHF Final Energy: -2572.53372658065246
    Total Energy =                      -2572.5337265806524556
  //            Monomer B HF           //
    Molecular point group: c1

    Geometry (in Angstrom), charge = 0, multiplicity = 1:

       Center              X                  Y                   Z               Mass
    ------------   -----------------  -----------------  -----------------  -----------------
      Gh(BR)          0.000000000000     0.000000000000     0.000000000000    78.918337600000
         O           -2.333005000000    -2.573527000000    -0.291127000000    15.994914619570
         H           -3.133171000000    -2.528310000000     0.371069000000     1.007825032230
         H           -1.787717000000    -1.837861000000    -0.137174000000     1.007825032230
         O            1.371021000000     2.985621000000    -0.728227000000    15.994914619570
         H            1.616172000000     3.427381000000     0.066995000000     1.007825032230
         H            1.180208000000     2.097681000000    -0.432288000000     1.007825032230
         O           -2.377910000000     2.369996000000     0.456820000000    15.994914619570
         H           -1.695206000000     2.554222000000     1.124779000000     1.007825032230
         H           -1.990682000000     1.663103000000    -0.153605000000     1.007825032230
         O           -2.461469000000    -0.687997000000     2.047974000000    15.994914619570
         H           -1.760234000000    -0.273058000000     1.493838000000     1.007825032230
         H           -3.296296000000    -0.283233000000     1.747665000000     1.007825032230
         O           -0.226095000000     0.748349000000    -3.395531000000    15.994914619570
         H            0.694620000000     0.580593000000    -3.071989000000     1.007825032230
         H           -0.938329000000     0.679073000000    -2.701236000000     1.007825032230

  Charge       = 0
  Multiplicity = 1
  Basis Set: AUG-CC-PVTZ
    Blend: AUG-CC-PVTZ
  Basis Set: (AUG-CC-PVTZ AUX)
    Blend: AUG-CC-PVTZ-JKFIT

    Orbital Energies [Eh]
    ---------------------

    Doubly Occupied:

       1A    -20.601887     2A    -20.595778     3A    -20.587357
       4A    -20.576337     5A    -20.568183     6A     -1.380270
       7A     -1.369571     8A     -1.364837     9A     -1.340224
      10A     -1.336722    11A     -0.741065    12A     -0.735032
      13A     -0.731757    14A     -0.723807    15A     -0.710375
      16A     -0.609778    17A     -0.608427    18A     -0.601467
      19A     -0.581553    20A     -0.565168    21A     -0.537611
      22A     -0.531264    23A     -0.526341    24A     -0.511304
      25A     -0.506561

  @DF-RHF Final Energy:  -380.26944420994971

   => Energetics <=

    Nuclear Repulsion Energy =            165.7357119923783273
    One-Electron Energy =                -854.1249543441380183
    Two-Electron Energy =                 308.1197981418099516
    Total Energy =                       -380.2694442099497110
 Dipole X            :        112.7067591         -112.1180161            0.5887431
 Dipole Y            :        -54.0527324           54.4602572            0.4075248
 Dipole Z            :         33.5397157          -32.0737055            1.4660102
 Magnitude           :                                                    1.6315272

    SAPT Results
  --------------------------------------------------------------------------------------------------------
    Electrostatics                -94.61992627 [mEh]     -59.37490014 [kcal/mol]    -248.42458219 [kJ/mol]
      Elst10,r                    -94.67760016 [mEh]     -59.41109106 [kcal/mol]    -248.57600498 [kJ/mol]
      Elst12,r                      0.05767389 [mEh]       0.03619091 [kcal/mol]       0.15142279 [kJ/mol]

    Exchange                       71.28549056 [mEh]      44.73232067 [kcal/mol]     187.16002968 [kJ/mol]
      Exch10                       63.08064092 [mEh]      39.58369979 [kcal/mol]     165.61819993 [kJ/mol]
      Exch10(S^2)                  62.23758683 [mEh]      39.05467536 [kcal/mol]     163.40476172 [kJ/mol]
      Exch11(S^2)                   3.03646980 [mEh]       1.90541357 [kcal/mol]       7.97225037 [kJ/mol]
      Exch12(S^2)                   5.16837983 [mEh]       3.24320731 [kcal/mol]      13.56957938 [kJ/mol]

    Induction                     -30.20832177 [mEh]     -18.95600810 [kcal/mol]     -79.31193788 [kJ/mol]
      Ind20,r                     -54.51807042 [mEh]     -34.21060568 [kcal/mol]    -143.13717418 [kJ/mol]
      Ind22                        -7.65197715 [mEh]      -4.80168815 [kcal/mol]     -20.09026323 [kJ/mol]
      Exch-Ind20,r                 34.31687666 [mEh]      21.53416521 [kcal/mol]      90.09894725 [kJ/mol]
      Exch-Ind22                    4.81660400 [mEh]       3.02246464 [kcal/mol]      12.64599205 [kJ/mol]
      delta HF,r (2)               -7.17175485 [mEh]      -4.50034411 [kcal/mol]     -18.82943978 [kJ/mol]

    Dispersion                    -26.71683773 [mEh]     -16.76506878 [kcal/mol]     -70.14504779 [kJ/mol]
      Disp20                      -30.28900058 [mEh]     -19.00663482 [kcal/mol]     -79.52376007 [kJ/mol]
      Disp21                        2.22074516 [mEh]       1.39353863 [kcal/mol]       5.83056562 [kJ/mol]
      Disp22 (SDQ)                 -0.12296450 [mEh]      -0.07716139 [kcal/mol]      -0.32284325 [kJ/mol]
      Disp22 (T)                   -4.88279841 [mEh]      -3.06400226 [kcal/mol]     -12.81978546 [kJ/mol]
      Est. Disp22 (T)              -5.58580577 [mEh]      -3.50514604 [kcal/mol]     -14.66553102 [kJ/mol]
      Exch-Disp20                   7.06018796 [mEh]       4.43033483 [kcal/mol]      18.53652092 [kJ/mol]

  Total HF                        -58.96990786 [mEh]     -37.00417585 [kcal/mol]    -154.82547175 [kJ/mol]
  Total SAPT0                     -82.19872048 [mEh]     -51.58047584 [kcal/mol]    -215.81271090 [kJ/mol]
  Total SAPT2                     -76.77157010 [mEh]     -48.17488756 [kcal/mol]    -201.56372953 [kJ/mol]
  Total SAPT2+                    -80.25959521 [mEh]     -50.36365635 [kcal/mol]    -210.72153818 [kJ/mol]

  Special recipe for scaled SAPT0 (see Manual):
    Electrostatics sSAPT0         -94.67760016 [mEh]     -59.41109106 [kcal/mol]    -248.57600498 [kJ/mol]
    Exchange sSAPT0                63.08064092 [mEh]      39.58369979 [kcal/mol]     165.61819993 [kJ/mol]
    Induction sSAPT0              -25.95943089 [mEh]     -16.28978881 [kcal/mol]     -68.15647640 [kJ/mol]
    Dispersion sSAPT0             -22.93800233 [mEh]     -14.39381377 [kcal/mol]     -60.22371683 [kJ/mol]
  Total sSAPT0                    -80.49439246 [mEh]     -50.51099385 [kcal/mol]    -211.33799828 [kJ/mol]
  --------------------------------------------------------------------------------------------------------

*** Psi4 exiting successfully. Buy a developer a beer!
