                               Psi4 1.8.2 release

  ==> Input File <==

--------------------------------------------------------------------------
MEMORY 60 GB

molecule dimer {
-1 1
Br     0.000000     0.000000     0.000000
--
0 1
O     -2.849832     1.193942    -1.826212
H     -1.931928     1.207032    -1.575616
H     -2.940118     0.369058    -2.291841
O      3.301686    -0.334450    -0.377123
H      2.396533    -0.045027    -0.274515
H      3.799968     0.084606     0.318721
O     -0.087440     3.511872     0.501620
H      0.781254     4.031099     0.240035
H     -0.046340     2.573718     0.235001
O      0.762499     2.499028    -2.179473
H      0.529887     2.070563    -3.000811
H      0.722495     1.889826    -1.445165
O     -1.395787    -1.285353    -2.578759
H     -0.708440    -1.470841    -3.234854
H     -0.928793    -0.644101    -2.033967

units ang
no_reorient
no_com
symmetry c1
}

set {
basis        aug-cc-pVTZ
scf_type     df
}

energy("sapt2+")
--------------------------------------------------------------------------

  //              Dimer HF             //
    Molecular point group: c1
  Charge       = -1
  Multiplicity = 1
  Basis Set: AUG-CC-PVTZ
    Blend: AUG-CC-PVTZ
  Basis Set: (AUG-CC-PVTZ AUX)
    Blend: AUG-CC-PVTZ-JKFIT
  @DF-RHF Final Energy: -2952.86624944103141
    Total Energy =                      -2952.8662494410318686
 Dipole X            :          2.1160559           -0.9004054            1.2156506
 Dipole Y            :       -104.8255662          103.4554094           -1.3701567
 Dipole Z            :        122.9349845         -122.3457600            0.5892245
 Magnitude           :                                                    1.9241417
  //            Monomer A HF           //
    Molecular point group: c1
  Multiplicity = 1
  Basis Set: AUG-CC-PVTZ
    Blend: AUG-CC-PVTZ
  Basis Set: (AUG-CC-PVTZ AUX)
    Blend: AUG-CC-PVTZ-JKFIT
  @DF-RHF Final Energy: -2572.53372945224146
    Total Energy =                      -2572.5337294522414595
  //            Monomer B HF           //
    Molecular point group: c1

    Geometry (in Angstrom), charge = 0, multiplicity = 1:

       Center              X                  Y                   Z               Mass
    ------------   -----------------  -----------------  -----------------  -----------------
      Gh(BR)          0.000000000000     0.000000000000     0.000000000000    78.918337600000
         O           -2.849832000000     1.193942000000    -1.826212000000    15.994914619570
         H           -1.931928000000     1.207032000000    -1.575616000000     1.007825032230
         H           -2.940118000000     0.369058000000    -2.291841000000     1.007825032230
         O            3.301686000000    -0.334450000000    -0.377123000000    15.994914619570
         H            2.396533000000    -0.045027000000    -0.274515000000     1.007825032230
         H            3.799968000000     0.084606000000     0.318721000000     1.007825032230
         O           -0.087440000000     3.511872000000     0.501620000000    15.994914619570
         H            0.781254000000     4.031099000000     0.240035000000     1.007825032230
         H           -0.046340000000     2.573718000000     0.235001000000     1.007825032230
         O            0.762499000000     2.499028000000    -2.179473000000    15.994914619570
         H            0.529887000000     2.070563000000    -3.000811000000     1.007825032230
         H            0.722495000000     1.889826000000    -1.445165000000     1.007825032230
         O           -1.395787000000    -1.285353000000    -2.578759000000    15.994914619570
         H           -0.708440000000    -1.470841000000    -3.234854000000     1.007825032230
         H           -0.928793000000    -0.644101000000    -2.033967000000     1.007825032230

  Charge       = 0
  Multiplicity = 1
  Basis Set: AUG-CC-PVTZ
    Blend: AUG-CC-PVTZ
  Basis Set: (AUG-CC-PVTZ AUX)
    Blend: AUG-CC-PVTZ-JKFIT

    Orbital Energies [Eh]
    ---------------------

    Doubly Occupied:

       1A    -20.605053     2A    -20.595975     3A    -20.587334
       4A    -20.578884     5A    -20.563119     6A     -1.389678
       7A     -1.383555     8A     -1.375081     9A     -1.354923
      10A     -1.331348    11A     -0.767780    12A     -0.744955
      13A     -0.741239    14A     -0.717977    15A     -0.709163
      16A     -0.628678    17A     -0.604630    18A     -0.602515
      19A     -0.588978    20A     -0.566785    21A     -0.542577
      22A     -0.541632    23A     -0.530961    24A     -0.508517
      25A     -0.507758

  @DF-RHF Final Energy:  -380.27430081886132

   => Energetics <=

    Nuclear Repulsion Energy =            172.1095458810753769
    One-Electron Energy =                -866.6294971176596391
    Two-Electron Energy =                 314.2456504177229135
    Total Energy =                       -380.2743008188613203
 Dipole X            :          2.3504030           -0.9004054            1.4499976
 Dipole Y            :       -104.1727372          103.4554094           -0.7173277
 Dipole Z            :        122.1158544         -122.3457600           -0.2299056
 Magnitude           :                                                    1.6339855

    SAPT Results
  --------------------------------------------------------------------------------------------------------
    Electrostatics                -90.50970805 [mEh]     -56.79569927 [kcal/mol]    -237.63320575 [kJ/mol]
      Elst10,r                    -90.33795928 [mEh]     -56.68792529 [kcal/mol]    -237.18227941 [kJ/mol]
      Elst12,r                     -0.17174877 [mEh]      -0.10777398 [kcal/mol]      -0.45092633 [kJ/mol]

    Exchange                       73.24359840 [mEh]      45.96105189 [kcal/mol]     192.30104112 [kJ/mol]
      Exch10                       65.26655989 [mEh]      40.95538465 [kcal/mol]     171.35732938 [kJ/mol]
      Exch10(S^2)                  64.50348705 [mEh]      40.47654921 [kcal/mol]     169.35388191 [kJ/mol]
      Exch11(S^2)                   2.78355805 [mEh]       1.74670905 [kcal/mol]       7.30823065 [kJ/mol]
      Exch12(S^2)                   5.19348047 [mEh]       3.25895820 [kcal/mol]      13.63548109 [kJ/mol]

    Induction                     -36.14429324 [mEh]     -22.68088643 [kcal/mol]     -94.89682882 [kJ/mol]
      Ind20,r                     -60.76020560 [mEh]     -38.12760465 [kcal/mol]    -159.52589784 [kJ/mol]
      Ind22                        -7.61884925 [mEh]      -4.78090009 [kcal/mol]     -20.00328596 [kJ/mol]
      Exch-Ind20,r                 36.86298313 [mEh]      23.13187115 [kcal/mol]      96.78374889 [kJ/mol]
      Exch-Ind22                    4.62232655 [mEh]       2.90055370 [kcal/mol]      12.13591668 [kJ/mol]
      delta HF,r (2)               -9.25054807 [mEh]      -5.80480655 [kcal/mol]     -24.28731060 [kJ/mol]

    Dispersion                    -26.36340722 [mEh]     -16.54328779 [kcal/mol]     -69.21711612 [kJ/mol]
      Disp20                      -30.11019374 [mEh]     -18.89443183 [kcal/mol]     -79.05430278 [kJ/mol]
      Disp21                        2.34952457 [mEh]       1.47434893 [kcal/mol]       6.16867592 [kJ/mol]
      Disp22 (SDQ)                 -0.12584221 [mEh]      -0.07896718 [kcal/mol]      -0.33039868 [kJ/mol]
      Disp22 (T)                   -4.79019081 [mEh]      -3.00589012 [kcal/mol]     -12.57664425 [kJ/mol]
      Est. Disp22 (T)              -5.49270984 [mEh]      -3.44672746 [kcal/mol]     -14.42110770 [kJ/mol]
      Exch-Disp20                   7.01581400 [mEh]       4.40248975 [kcal/mol]      18.42001712 [kJ/mol]

  Total HF                        -58.21916993 [mEh]     -36.53308069 [kcal/mol]    -152.85440959 [kJ/mol]
  Total SAPT0                     -81.31354967 [mEh]     -51.02502277 [kcal/mol]    -213.48869525 [kJ/mol]
  Total SAPT2                     -76.50478263 [mEh]     -48.00747589 [kcal/mol]    -200.86327912 [kJ/mol]
  Total SAPT2+                    -79.77381010 [mEh]     -50.05882160 [kcal/mol]    -209.44610957 [kJ/mol]

  Special recipe for scaled SAPT0 (see Manual):
    Electrostatics sSAPT0         -90.33795928 [mEh]     -56.68792529 [kcal/mol]    -237.18227941 [kJ/mol]
    Exchange sSAPT0                65.26655989 [mEh]      40.95538465 [kcal/mol]     171.35732938 [kJ/mol]
    Induction sSAPT0              -31.82397142 [mEh]     -19.96984356 [kcal/mol]     -83.55382545 [kJ/mol]
    Dispersion sSAPT0             -22.84243246 [mEh]     -14.33384277 [kcal/mol]     -59.97279817 [kJ/mol]
  Total sSAPT0                    -79.73780327 [mEh]     -50.03622697 [kcal/mol]    -209.35157365 [kJ/mol]
  --------------------------------------------------------------------------------------------------------

*** Psi4 exiting successfully. Buy a developer a beer!
