                               Psi4 1.8.2 release

  ==> Input File <==

--------------------------------------------------------------------------
MEMORY 60 GB

molecule dimer {
-1 1
Br     0.000000     0.000000     0.000000
--
0 1
O     -2.021869    -2.179823     1.217412
H     -2.921871    -1.867399     1.198558
H     -1.513540    -1.451927     0.815047
O     -2.961999     0.929139    -1.272353
H     -2.728774     1.887839    -1.108211
H     -2.207349     0.482925    -0.838278
O     -2.117015     1.588878     2.246208
H     -1.423790     1.453822     1.551659
H     -1.773078     0.949786     2.896329
O     -0.330378    -1.158355    -3.243256
H     -0.343064    -0.673188    -2.378621
H     -0.323750    -2.040751    -2.892653

units ang
no_reorient
no_com
symmetry c1
}

set {
basis        aug-cc-pVTZ
scf_type     df
}

energy("sapt2+")
--------------------------------------------------------------------------

  //              Dimer HF             //
    Molecular point group: c1
  Charge       = -1
  Multiplicity = 1
  Basis Set: AUG-CC-PVTZ
    Blend: AUG-CC-PVTZ
  Basis Set: (AUG-CC-PVTZ AUX)
    Blend: AUG-CC-PVTZ-JKFIT
  @DF-RHF Final Energy: -2876.81297423207434
    Total Energy =                      -2876.8129742320743389
 Dipole X            :        139.2327276         -137.3553179            1.8774097
 Dipole Y            :         15.1280646          -14.7780003            0.3500643
 Dipole Z            :         18.2641159          -17.3327230            0.9313929
 Magnitude           :                                                    2.1247835
  //            Monomer A HF           //
    Molecular point group: c1
  Multiplicity = 1
  Basis Set: AUG-CC-PVTZ
    Blend: AUG-CC-PVTZ
  Basis Set: (AUG-CC-PVTZ AUX)
    Blend: AUG-CC-PVTZ-JKFIT
  @DF-RHF Final Energy: -2572.53372256918465
    Total Energy =                      -2572.5337225691841923
  //            Monomer B HF           //
    Molecular point group: c1

    Geometry (in Angstrom), charge = 0, multiplicity = 1:

       Center              X                  Y                   Z               Mass
    ------------   -----------------  -----------------  -----------------  -----------------
      Gh(BR)          0.000000000000     0.000000000000     0.000000000000    78.918337600000
         O           -2.021869000000    -2.179823000000     1.217412000000    15.994914619570
         H           -2.921871000000    -1.867399000000     1.198558000000     1.007825032230
         H           -1.513540000000    -1.451927000000     0.815047000000     1.007825032230
         O           -2.961999000000     0.929139000000    -1.272353000000    15.994914619570
         H           -2.728774000000     1.887839000000    -1.108211000000     1.007825032230
         H           -2.207349000000     0.482925000000    -0.838278000000     1.007825032230
         O           -2.117015000000     1.588878000000     2.246208000000    15.994914619570
         H           -1.423790000000     1.453822000000     1.551659000000     1.007825032230
         H           -1.773078000000     0.949786000000     2.896329000000     1.007825032230
         O           -0.330378000000    -1.158355000000    -3.243256000000    15.994914619570
         H           -0.343064000000    -0.673188000000    -2.378621000000     1.007825032230
         H           -0.323750000000    -2.040751000000    -2.892653000000     1.007825032230

  Charge       = 0
  Multiplicity = 1
  Basis Set: AUG-CC-PVTZ
    Blend: AUG-CC-PVTZ
  Basis Set: (AUG-CC-PVTZ AUX)
    Blend: AUG-CC-PVTZ-JKFIT

    Orbital Energies [Eh]
    ---------------------

    Doubly Occupied:

       1A    -20.595526     2A    -20.590675     3A    -20.587015
       4A    -20.578799     5A     -1.369136     6A     -1.366900
       7A     -1.358446     8A     -1.356427     9A     -0.731561
      10A     -0.712446    11A     -0.710245    12A     -0.702804
      13A     -0.614277    14A     -0.603530    15A     -0.601530
      16A     -0.600292    17A     -0.533530    18A     -0.527511
      19A     -0.523421    20A     -0.516424

  @DF-RHF Final Energy:  -304.22246305505519

   => Energetics <=

    Nuclear Repulsion Energy =            111.6348046069244049
    One-Electron Energy =                -641.3535409919902577
    Two-Electron Energy =                 225.4962733300106947
    Total Energy =                       -304.2224630550551865
 Dipole X            :        138.2545184         -137.3553179            0.8992005
 Dipole Y            :         15.0335532          -14.7780003            0.2555529
 Dipole Z            :         18.2072440          -17.3327230            0.8745210
 Magnitude           :                                                    1.2800999

    SAPT Results
  --------------------------------------------------------------------------------------------------------
    Electrostatics                -89.86823298 [mEh]     -56.39316758 [kcal/mol]    -235.94901317 [kJ/mol]
      Elst10,r                    -90.22440715 [mEh]     -56.61667025 [kcal/mol]    -236.88414834 [kJ/mol]
      Elst12,r                      0.35617418 [mEh]       0.22350267 [kcal/mol]       0.93513517 [kJ/mol]

    Exchange                       70.45570058 [mEh]      44.21161959 [kcal/mol]     184.98141638 [kJ/mol]
      Exch10                       62.70704530 [mEh]      39.34926500 [kcal/mol]     164.63732476 [kJ/mol]
      Exch10(S^2)                  61.89507576 [mEh]      38.83974642 [kcal/mol]     162.50549901 [kJ/mol]
      Exch11(S^2)                   3.08884717 [mEh]       1.93828086 [kcal/mol]       8.10976712 [kJ/mol]
      Exch12(S^2)                   4.65980811 [mEh]       2.92407373 [kcal/mol]      12.23432450 [kJ/mol]

    Induction                     -32.00339955 [mEh]     -20.08243641 [kcal/mol]     -84.02491394 [kJ/mol]
      Ind20,r                     -54.12381332 [mEh]     -33.96320561 [kcal/mol]    -142.10205229 [kJ/mol]
      Ind22                        -7.25338989 [mEh]      -4.55157087 [kcal/mol]     -19.04377254 [kJ/mol]
      Exch-Ind20,r                 33.73685333 [mEh]      21.17019508 [kcal/mol]      88.57609622 [kJ/mol]
      Exch-Ind22                    4.52123633 [mEh]       2.83711863 [kcal/mol]      11.87050434 [kJ/mol]
      delta HF,r (2)               -8.88428600 [mEh]      -5.57497363 [kcal/mol]     -23.32568967 [kJ/mol]

    Dispersion                    -24.41570719 [mEh]     -15.32108757 [kcal/mol]     -64.10343040 [kJ/mol]
      Disp20                      -27.79934733 [mEh]     -17.44435381 [kcal/mol]     -72.98717636 [kJ/mol]
      Disp21                        2.04858821 [mEh]       1.28550851 [kcal/mol]       5.37856761 [kJ/mol]
      Disp22 (SDQ)                 -0.10237847 [mEh]      -0.06424346 [kcal/mol]      -0.26879465 [kJ/mol]
      Disp22 (T)                   -4.44530302 [mEh]      -2.78946976 [kcal/mol]     -11.67114148 [kJ/mol]
      Est. Disp22 (T)              -5.07151636 [mEh]      -3.18242456 [kcal/mol]     -13.31526437 [kJ/mol]
      Exch-Disp20                   6.50894676 [mEh]       4.08442576 [kcal/mol]      17.08923737 [kJ/mol]

  Total HF                        -56.78860783 [mEh]     -35.63538942 [kcal/mol]    -149.09846933 [kJ/mol]
  Total SAPT0                     -78.07900840 [mEh]     -48.99531748 [kcal/mol]    -204.99640832 [kJ/mol]
  Total SAPT2                     -72.70633252 [mEh]     -45.62391246 [kcal/mol]    -190.89044972 [kJ/mol]
  Total SAPT2+                    -75.83163914 [mEh]     -47.58507197 [kcal/mol]    -199.09594113 [kJ/mol]

  Special recipe for scaled SAPT0 (see Manual):
    Electrostatics sSAPT0         -90.22440715 [mEh]     -56.61667025 [kcal/mol]    -236.88414834 [kJ/mol]
    Exchange sSAPT0                62.70704530 [mEh]      39.34926500 [kcal/mol]     164.63732476 [kJ/mol]
    Induction sSAPT0              -27.92602294 [mEh]     -17.52384396 [kcal/mol]     -73.31976313 [kJ/mol]
    Dispersion sSAPT0             -21.03086287 [mEh]     -13.19706569 [kcal/mol]     -55.21652287 [kJ/mol]
  Total sSAPT0                    -76.47424766 [mEh]     -47.98831491 [kcal/mol]    -200.78310958 [kJ/mol]
  --------------------------------------------------------------------------------------------------------

*** Psi4 exiting successfully. Buy a developer a beer!
