                               Psi4 1.8.2 release

  ==> Input File <==

--------------------------------------------------------------------------
MEMORY 60 GB

molecule dimer {
-1 1
Br     0.000000     0.000000     0.000000
--
0 1
O     -0.271207     3.467914     0.449623
H     -0.241023     2.515481     0.343126
H     -0.990742     3.791271    -0.071397
O      2.711279    -1.492542     1.388467
H      2.050502    -1.049548     0.918516
H      2.762383    -1.071533     2.245460
O     -3.165397     1.319402     1.105039
H     -2.402253     0.932596     1.588108
H     -3.585081     2.039385     1.609883
O      2.670633     1.932263     0.597242
H      2.022097     1.289442     0.376040
H      2.703031     1.805511     1.515012
O     -0.063975     0.793039     3.259158
H     -0.939639     0.583016     3.552775
H     -0.180918     0.683970     2.320537
O     -2.832498     0.803970    -1.649860
H     -2.012548     0.947282    -2.193061
H     -2.533765     0.983576    -0.688689

units ang
no_reorient
no_com
symmetry c1
}

set {
basis        aug-cc-pVTZ
scf_type     df
}

energy("sapt2+")
--------------------------------------------------------------------------

  //              Dimer HF             //
    Molecular point group: c1
  Charge       = -1
  Multiplicity = 1
  Basis Set: AUG-CC-PVTZ
    Blend: AUG-CC-PVTZ
  Basis Set: (AUG-CC-PVTZ AUX)
    Blend: AUG-CC-PVTZ-JKFIT
  @DF-RHF Final Energy: -3028.93182927934367
    Total Energy =                      -3028.9318292793436740
 Dipole X            :         19.5634317          -20.7062507           -1.1428191
 Dipole Y            :       -129.2477852          128.5822889           -0.6654963
 Dipole Z            :        -99.2622866           99.6143842            0.3520977
 Magnitude           :                                                    1.3685370
  //            Monomer A HF           //
    Molecular point group: c1
  Multiplicity = 1
  Basis Set: AUG-CC-PVTZ
    Blend: AUG-CC-PVTZ
  Basis Set: (AUG-CC-PVTZ AUX)
    Blend: AUG-CC-PVTZ-JKFIT
  @DF-RHF Final Energy: -2572.53373425459040
    Total Energy =                      -2572.5337342545903994
  //            Monomer B HF           //
    Molecular point group: c1

    Geometry (in Angstrom), charge = 0, multiplicity = 1:

       Center              X                  Y                   Z               Mass
    ------------   -----------------  -----------------  -----------------  -----------------
      Gh(BR)          0.000000000000     0.000000000000     0.000000000000    78.918337600000
         O           -0.271207000000     3.467914000000     0.449623000000    15.994914619570
         H           -0.241023000000     2.515481000000     0.343126000000     1.007825032230
         H           -0.990742000000     3.791271000000    -0.071397000000     1.007825032230
         O            2.711279000000    -1.492542000000     1.388467000000    15.994914619570
         H            2.050502000000    -1.049548000000     0.918516000000     1.007825032230
         H            2.762383000000    -1.071533000000     2.245460000000     1.007825032230
         O           -3.165397000000     1.319402000000     1.105039000000    15.994914619570
         H           -2.402253000000     0.932596000000     1.588108000000     1.007825032230
         H           -3.585081000000     2.039385000000     1.609883000000     1.007825032230
         O            2.670633000000     1.932263000000     0.597242000000    15.994914619570
         H            2.022097000000     1.289442000000     0.376040000000     1.007825032230
         H            2.703031000000     1.805511000000     1.515012000000     1.007825032230
         O           -0.063975000000     0.793039000000     3.259158000000    15.994914619570
         H           -0.939639000000     0.583016000000     3.552775000000     1.007825032230
         H           -0.180918000000     0.683970000000     2.320537000000     1.007825032230
         O           -2.832498000000     0.803970000000    -1.649860000000    15.994914619570
         H           -2.012548000000     0.947282000000    -2.193061000000     1.007825032230
         H           -2.533765000000     0.983576000000    -0.688689000000     1.007825032230

  Charge       = 0
  Multiplicity = 1
  Basis Set: AUG-CC-PVTZ
    Blend: AUG-CC-PVTZ
  Basis Set: (AUG-CC-PVTZ AUX)
    Blend: AUG-CC-PVTZ-JKFIT

    Orbital Energies [Eh]
    ---------------------

    Doubly Occupied:

       1A    -20.613851     2A    -20.611318     3A    -20.578484
       4A    -20.576922     5A    -20.574764     6A    -20.565499
       7A     -1.405045     8A     -1.388061     9A     -1.381118
      10A     -1.375229    11A     -1.367649    12A     -1.321263
      13A     -0.769660    14A     -0.756100    15A     -0.745766
      16A     -0.741342    17A     -0.729686    18A     -0.694040
      19A     -0.639619    20A     -0.610873    21A     -0.609936
      22A     -0.595766    23A     -0.593201    24A     -0.570548
      25A     -0.555052    26A     -0.549803    27A     -0.529766
      28A     -0.523272    29A     -0.516442    30A     -0.497881

  @DF-RHF Final Energy:  -456.33631921481987

   => Energetics <=

    Nuclear Repulsion Energy =            241.5495735689532353
    One-Electron Energy =               -1109.7958679258081247
    Two-Electron Energy =                 411.9099751420349662
    Total Energy =                       -456.3363192148198664
 Dipole X            :         19.6745229          -20.7062507           -1.0317278
 Dipole Y            :       -128.5344823          128.5822889            0.0478067
 Dipole Z            :        -98.5507461           99.6143842            1.0636381
 Magnitude           :                                                    1.4825902

    SAPT Results
  --------------------------------------------------------------------------------------------------------
    Electrostatics                -97.76327396 [mEh]     -61.34738060 [kcal/mol]    -256.67744042 [kJ/mol]
      Elst10,r                    -97.75385679 [mEh]     -61.34147123 [kcal/mol]    -256.65271563 [kJ/mol]
      Elst12,r                     -0.00941717 [mEh]      -0.00590937 [kcal/mol]      -0.02472479 [kJ/mol]

    Exchange                       76.29007607 [mEh]      47.87274549 [kcal/mol]     200.29956712 [kJ/mol]
      Exch10                       67.42842139 [mEh]      42.31197322 [kcal/mol]     177.03329597 [kJ/mol]
      Exch10(S^2)                  66.55525459 [mEh]      41.76405279 [kcal/mol]     174.74079686 [kJ/mol]
      Exch11(S^2)                   3.10182031 [mEh]       1.94642163 [kcal/mol]       8.14382809 [kJ/mol]
      Exch12(S^2)                   5.75983437 [mEh]       3.61435063 [kcal/mol]      15.12244306 [kJ/mol]

    Induction                     -34.78164275 [mEh]     -21.82581034 [kcal/mol]     -91.31919045 [kJ/mol]
      Ind20,r                     -61.13790087 [mEh]     -38.36461200 [kcal/mol]    -160.51753663 [kJ/mol]
      Ind22                        -8.64924748 [mEh]      -5.42748473 [kcal/mol]     -22.70859612 [kJ/mol]
      Exch-Ind20,r                 37.59056382 [mEh]      23.58843492 [kcal/mol]      98.69401172 [kJ/mol]
      Exch-Ind22                    5.31797927 [mEh]       3.33708237 [kcal/mol]      13.96235264 [kJ/mol]
      delta HF,r (2)               -7.90303749 [mEh]      -4.95923089 [kcal/mol]     -20.74942206 [kJ/mol]

    Dispersion                    -29.49939187 [mEh]     -18.51114787 [kcal/mol]     -77.45064268 [kJ/mol]
      Disp20                      -33.41380489 [mEh]     -20.96747913 [kcal/mol]     -87.72793266 [kJ/mol]
      Disp21                        2.66043107 [mEh]       1.66944570 [kcal/mol]       6.98496081 [kJ/mol]
      Disp22 (SDQ)                 -0.26589236 [mEh]      -0.16684998 [kcal/mol]      -0.69810030 [kJ/mol]
      Disp22 (T)                   -5.36987726 [mEh]      -3.36964886 [kcal/mol]     -14.09861082 [kJ/mol]
      Est. Disp22 (T)              -6.17623139 [mEh]      -3.87564371 [kcal/mol]     -16.21569329 [kJ/mol]
      Exch-Disp20                   7.69610571 [mEh]       4.82937925 [kcal/mol]      20.20612276 [kJ/mol]

  Total HF                        -61.77580993 [mEh]     -38.76490598 [kcal/mol]    -162.19236663 [kJ/mol]
  Total SAPT0                     -87.49350912 [mEh]     -54.90300586 [kcal/mol]    -229.71417654 [kJ/mol]
  Total SAPT2                     -81.97253982 [mEh]     -51.43854533 [kcal/mol]    -215.21887365 [kJ/mol]
  Total SAPT2+                    -85.75423251 [mEh]     -53.81159332 [kcal/mol]    -225.14770643 [kJ/mol]

  Special recipe for scaled SAPT0 (see Manual):
    Electrostatics sSAPT0         -97.75385679 [mEh]     -61.34147123 [kcal/mol]    -256.65271563 [kJ/mol]
    Exchange sSAPT0                67.42842139 [mEh]      42.31197322 [kcal/mol]     177.03329597 [kJ/mol]
    Induction sSAPT0              -29.95137950 [mEh]     -18.79477439 [kcal/mol]     -78.63733605 [kJ/mol]
    Dispersion sSAPT0             -25.41080237 [mEh]     -15.94551922 [kcal/mol]     -66.71605243 [kJ/mol]
  Total sSAPT0                    -85.68761727 [mEh]     -53.76979162 [kcal/mol]    -224.97280814 [kJ/mol]
  --------------------------------------------------------------------------------------------------------

*** Psi4 exiting successfully. Buy a developer a beer!
