                               Psi4 1.8.2 release

  ==> Input File <==

--------------------------------------------------------------------------
MEMORY 60 GB

molecule dimer {
-1 1
Br     0.000000     0.000000     0.000000
--
0 1
O      2.465274    -2.082896    -1.151644
H      2.088415    -1.327484    -0.739582
H      3.392014    -2.150807    -0.795133
O     -2.741984    -0.795186    -1.139633
H     -3.050808    -1.748838    -1.012684
H     -1.833173    -0.702090    -0.816427
O     -1.323507     2.305848    -2.078266
H     -1.377126     1.531047    -1.554944
H     -2.005493     2.942304    -1.677368
O     -1.653707     2.630529     1.100887
H     -0.964169     2.021284     0.768719
H     -1.213494     3.129397     1.794661

units ang
no_reorient
no_com
symmetry c1
}

set {
basis        aug-cc-pVTZ
scf_type     df
}

energy("sapt2+")
--------------------------------------------------------------------------

  //              Dimer HF             //
    Molecular point group: c1
  Charge       = -1
  Multiplicity = 1
  Basis Set: AUG-CC-PVTZ
    Blend: AUG-CC-PVTZ
  Basis Set: (AUG-CC-PVTZ AUX)
    Blend: AUG-CC-PVTZ-JKFIT
  @DF-RHF Final Energy: -2876.79454765158016
    Total Energy =                      -2876.7945476515806149
 Dipole X            :         59.9660963          -58.5724883            1.3936080
 Dipole Y            :        -38.5549700           38.0990953           -0.4558746
 Dipole Z            :         58.9018671          -57.0357253            1.8661418
 Magnitude           :                                                    2.3732783
  //            Monomer A HF           //
    Molecular point group: c1
  Multiplicity = 1
  Basis Set: AUG-CC-PVTZ
    Blend: AUG-CC-PVTZ
  Basis Set: (AUG-CC-PVTZ AUX)
    Blend: AUG-CC-PVTZ-JKFIT
  @DF-RHF Final Energy: -2572.53372311761359
    Total Energy =                      -2572.5337231176131354
  //            Monomer B HF           //
    Molecular point group: c1

    Geometry (in Angstrom), charge = 0, multiplicity = 1:

       Center              X                  Y                   Z               Mass
    ------------   -----------------  -----------------  -----------------  -----------------
      Gh(BR)          0.000000000000     0.000000000000     0.000000000000    78.918337600000
         O            2.465274000000    -2.082896000000    -1.151644000000    15.994914619570
         H            2.088415000000    -1.327484000000    -0.739582000000     1.007825032230
         H            3.392014000000    -2.150807000000    -0.795133000000     1.007825032230
         O           -2.741984000000    -0.795186000000    -1.139633000000    15.994914619570
         H           -3.050808000000    -1.748838000000    -1.012684000000     1.007825032230
         H           -1.833173000000    -0.702090000000    -0.816427000000     1.007825032230
         O           -1.323507000000     2.305848000000    -2.078266000000    15.994914619570
         H           -1.377126000000     1.531047000000    -1.554944000000     1.007825032230
         H           -2.005493000000     2.942304000000    -1.677368000000     1.007825032230
         O           -1.653707000000     2.630529000000     1.100887000000    15.994914619570
         H           -0.964169000000     2.021284000000     0.768719000000     1.007825032230
         H           -1.213494000000     3.129397000000     1.794661000000     1.007825032230

  Charge       = 0
  Multiplicity = 1
  Basis Set: AUG-CC-PVTZ
    Blend: AUG-CC-PVTZ
  Basis Set: (AUG-CC-PVTZ AUX)
    Blend: AUG-CC-PVTZ-JKFIT

    Orbital Energies [Eh]
    ---------------------

    Doubly Occupied:

       1A    -20.580682     2A    -20.578421     3A    -20.576598
       4A    -20.556295     5A     -1.359480     6A     -1.356706
       7A     -1.343253     8A     -1.332523     9A     -0.724007
      10A     -0.723391    11A     -0.719557    12A     -0.696035
      13A     -0.595783    14A     -0.588548    15A     -0.577689
      16A     -0.567103    17A     -0.522195    18A     -0.517476
      19A     -0.514376    20A     -0.494783

  @DF-RHF Final Energy:  -304.22647008167985

   => Energetics <=

    Nuclear Repulsion Energy =            107.3420639698026093
    One-Electron Energy =                -633.2872619696880747
    Two-Electron Energy =                 221.7187279182056443
    Total Energy =                       -304.2264700816798495
 Dipole X            :         59.5182376          -58.5724883            0.9457492
 Dipole Y            :        -38.3752717           38.0990953           -0.2761764
 Dipole Z            :         58.6955935          -57.0357253            1.6598683
 Magnitude           :                                                    1.9302533

    SAPT Results
  --------------------------------------------------------------------------------------------------------
    Electrostatics                -77.20159797 [mEh]     -48.44473412 [kcal/mol]    -202.69276754 [kJ/mol]
      Elst10,r                    -75.77012855 [mEh]     -47.54647349 [kcal/mol]    -198.93444510 [kJ/mol]
      Elst12,r                     -1.43146942 [mEh]      -0.89826062 [kcal/mol]      -3.75832244 [kJ/mol]

    Exchange                       77.86059939 [mEh]      48.85826375 [kcal/mol]     204.42297553 [kJ/mol]
      Exch10                       70.16664532 [mEh]      44.03023468 [kcal/mol]     184.22250191 [kJ/mol]
      Exch10(S^2)                  69.02773767 [mEh]      43.31555934 [kcal/mol]     181.23230030 [kJ/mol]
      Exch11(S^2)                   2.70641805 [mEh]       1.69830296 [kcal/mol]       7.10569960 [kJ/mol]
      Exch12(S^2)                   4.98753602 [mEh]       3.12972610 [kcal/mol]      13.09477402 [kJ/mol]

    Induction                     -31.30064731 [mEh]     -19.64145272 [kcal/mol]     -82.17983818 [kJ/mol]
      Ind20,r                     -58.92573699 [mEh]     -36.97645821 [kcal/mol]    -154.70950115 [kJ/mol]
      Ind22                        -7.50539792 [mEh]      -4.70970830 [kcal/mol]     -19.70541953 [kJ/mol]
      Exch-Ind20,r                 38.90792164 [mEh]      24.41508943 [kcal/mol]     102.15273418 [kJ/mol]
      Exch-Ind22                    4.95571968 [mEh]       3.10976105 [kcal/mol]      13.01124022 [kJ/mol]
      delta HF,r (2)               -8.73315371 [mEh]      -5.48013669 [kcal/mol]     -22.92889190 [kJ/mol]

    Dispersion                    -24.78487441 [mEh]     -15.55274350 [kcal/mol]     -65.07267881 [kJ/mol]
      Disp20                      -29.09459997 [mEh]     -18.25713712 [kcal/mol]     -76.38786170 [kJ/mol]
      Disp21                        2.19180226 [mEh]       1.37537668 [kcal/mol]       5.75457605 [kJ/mol]
      Disp22 (SDQ)                  0.10723215 [mEh]       0.06728919 [kcal/mol]       0.28153797 [kJ/mol]
      Disp22 (T)                   -4.45190027 [mEh]      -2.79360960 [kcal/mol]     -11.68846255 [kJ/mol]
      Est. Disp22 (T)              -5.09901192 [mEh]      -3.19967829 [kcal/mol]     -13.38745396 [kJ/mol]
      Exch-Disp20                   7.10970307 [mEh]       4.46140603 [kcal/mol]      18.66652285 [kJ/mol]

  Total HF                        -34.35445229 [mEh]     -21.55774428 [kcal/mol]     -90.19760205 [kJ/mol]
  Total SAPT0                     -56.33934919 [mEh]     -35.35347536 [kcal/mol]    -147.91894091 [kJ/mol]
  Total SAPT2                     -52.62654278 [mEh]     -33.02365417 [kcal/mol]    -138.17096904 [kJ/mol]
  Total SAPT2+                    -55.42652030 [mEh]     -34.78066659 [kcal/mol]    -145.52230899 [kJ/mol]

  Special recipe for scaled SAPT0 (see Manual):
    Electrostatics sSAPT0         -75.77012855 [mEh]     -47.54647349 [kcal/mol]    -198.93444510 [kJ/mol]
    Exchange sSAPT0                70.16664532 [mEh]      44.03023468 [kcal/mol]     184.22250191 [kJ/mol]
    Induction sSAPT0              -26.79316152 [mEh]     -16.81296269 [kcal/mol]     -70.34543588 [kJ/mol]
    Dispersion sSAPT0             -21.62714378 [mEh]     -13.57123761 [kcal/mol]     -56.78205817 [kJ/mol]
  Total sSAPT0                    -54.02378853 [mEh]     -33.90043911 [kcal/mol]    -141.83943724 [kJ/mol]
  --------------------------------------------------------------------------------------------------------

*** Psi4 exiting successfully. Buy a developer a beer!
