                               Psi4 1.8.2 release

  ==> Input File <==

--------------------------------------------------------------------------
MEMORY 60 GB

molecule dimer {
-1 1
Br     0.000000     0.000000     0.000000
--
0 1
O      3.287674    -0.889413    -0.174356
H      2.291823    -0.896161    -0.076636
H      3.344902    -0.512476    -1.041446
O      0.571519     3.175317    -0.846170
H      0.928904     2.305382    -0.539798
H      1.302047     3.732851    -1.068660
O      0.642149    -1.354710    -2.748407
H      0.407845    -0.866599    -1.970799
H     -0.147391    -1.177426    -3.323453

units ang
no_reorient
no_com
symmetry c1
}

set {
basis        aug-cc-pVTZ
scf_type     df
}

energy("sapt2+")
--------------------------------------------------------------------------

  //              Dimer HF             //
    Molecular point group: c1
  Charge       = -1
  Multiplicity = 1
  Basis Set: AUG-CC-PVTZ
    Blend: AUG-CC-PVTZ
  Basis Set: (AUG-CC-PVTZ AUX)
    Blend: AUG-CC-PVTZ-JKFIT
  @DF-RHF Final Energy: -2800.73854759331289
    Total Energy =                      -2800.7385475933133421
 Dipole X            :        -84.5420723           83.4103682           -1.1317041
 Dipole Y            :        -18.5043837           18.9636341            0.4592504
 Dipole Z            :         72.3678066          -72.1351094            0.2326972
 Magnitude           :                                                    1.2433073
  //            Monomer A HF           //
    Molecular point group: c1
  Multiplicity = 1
  Basis Set: AUG-CC-PVTZ
    Blend: AUG-CC-PVTZ
  Basis Set: (AUG-CC-PVTZ AUX)
    Blend: AUG-CC-PVTZ-JKFIT
  @DF-RHF Final Energy: -2572.53371154941988
    Total Energy =                      -2572.5337115494198770
  //            Monomer B HF           //
    Molecular point group: c1

    Geometry (in Angstrom), charge = 0, multiplicity = 1:

       Center              X                  Y                   Z               Mass
    ------------   -----------------  -----------------  -----------------  -----------------
      Gh(BR)          0.000000000000     0.000000000000     0.000000000000    78.918337600000
         O            3.287674000000    -0.889413000000    -0.174356000000    15.994914619570
         H            2.291823000000    -0.896161000000    -0.076636000000     1.007825032230
         H            3.344902000000    -0.512476000000    -1.041446000000     1.007825032230
         O            0.571519000000     3.175317000000    -0.846170000000    15.994914619570
         H            0.928904000000     2.305382000000    -0.539798000000     1.007825032230
         H            1.302047000000     3.732851000000    -1.068660000000     1.007825032230
         O            0.642149000000    -1.354710000000    -2.748407000000    15.994914619570
         H            0.407845000000    -0.866599000000    -1.970799000000     1.007825032230
         H           -0.147391000000    -1.177426000000    -3.323453000000     1.007825032230

  Charge       = 0
  Multiplicity = 1
  Basis Set: AUG-CC-PVTZ
    Blend: AUG-CC-PVTZ
  Basis Set: (AUG-CC-PVTZ AUX)
    Blend: AUG-CC-PVTZ-JKFIT

    Orbital Energies [Eh]
    ---------------------

    Doubly Occupied:

       1A    -20.586358     2A    -20.577438     3A    -20.576498
       4A     -1.365892     5A     -1.356529     6A     -1.353808
       7A     -0.729788     8A     -0.720075     9A     -0.701706
      10A     -0.605322    11A     -0.596195    12A     -0.585892
      13A     -0.525968    14A     -0.518650    15A     -0.514556

  @DF-RHF Final Energy:  -228.17216666182884

   => Energetics <=

    Nuclear Repulsion Energy =             63.8430793062829309
    One-Electron Energy =                -441.4011402182764527
    Two-Electron Energy =                 149.3858942501646538
    Total Energy =                       -228.1721666618288396
 Dipole X            :        -83.9444217           83.4103682           -0.5340535
 Dipole Y            :        -18.5065673           18.9636341            0.4570668
 Dipole Z            :         71.7722091          -72.1351094           -0.3629003
 Magnitude           :                                                    0.7910878

    SAPT Results
  --------------------------------------------------------------------------------------------------------
    Electrostatics                -63.56057368 [mEh]     -39.88486214 [kcal/mol]    -166.87826319 [kJ/mol]
      Elst10,r                    -62.74653231 [mEh]     -39.37404347 [kcal/mol]    -164.74099788 [kJ/mol]
      Elst12,r                     -0.81404137 [mEh]      -0.51081867 [kcal/mol]      -2.13726532 [kJ/mol]

    Exchange                       59.95735891 [mEh]      37.62381074 [kcal/mol]     157.41802413 [kJ/mol]
      Exch10                       54.23487720 [mEh]      34.03289925 [kcal/mol]     142.39365048 [kJ/mol]
      Exch10(S^2)                  53.55314546 [mEh]      33.60510613 [kcal/mol]     140.60376404 [kJ/mol]
      Exch11(S^2)                   1.97993560 [mEh]       1.24242835 [kcal/mol]       5.19832020 [kJ/mol]
      Exch12(S^2)                   3.74254611 [mEh]       2.34848314 [kcal/mol]       9.82605345 [kJ/mol]

    Induction                     -26.09535995 [mEh]     -16.37508559 [kcal/mol]     -68.51335812 [kJ/mol]
      Ind20,r                     -47.08091412 [mEh]     -29.54371965 [kcal/mol]    -123.61092300 [kJ/mol]
      Ind22                        -5.64983371 [mEh]      -3.54532418 [kcal/mol]     -14.83363637 [kJ/mol]
      Exch-Ind20,r                 30.93432695 [mEh]      19.41158323 [kcal/mol]      81.21806423 [kJ/mol]
      Exch-Ind22                    3.71220072 [mEh]       2.32944112 [kcal/mol]       9.74638165 [kJ/mol]
      delta HF,r (2)               -8.01113979 [mEh]      -5.02706611 [kcal/mol]     -21.03324462 [kJ/mol]

    Dispersion                    -19.06943957 [mEh]     -11.96625399 [kcal/mol]     -50.06680670 [kJ/mol]
      Disp20                      -22.19107386 [mEh]     -13.92510908 [kcal/mol]     -58.26265639 [kJ/mol]
      Disp21                        1.58499277 [mEh]       0.99459798 [kcal/mol]       4.16139794 [kJ/mol]
      Disp22 (SDQ)                  0.04966557 [mEh]       0.03116562 [kcal/mol]       0.13039694 [kJ/mol]
      Disp22 (T)                   -3.41849790 [mEh]      -2.14513982 [kcal/mol]      -8.97526499 [kJ/mol]
      Est. Disp22 (T)              -3.90325080 [mEh]      -2.44932685 [kcal/mol]     -10.24798356 [kJ/mol]
      Exch-Disp20                   5.39022675 [mEh]       3.38241835 [kcal/mol]      14.15203838 [kJ/mol]

  Total HF                        -32.66938206 [mEh]     -20.50034675 [kcal/mol]     -85.77345079 [kJ/mol]
  Total SAPT0                     -49.47022918 [mEh]     -31.04303748 [kcal/mol]    -129.88406881 [kJ/mol]
  Total SAPT2                     -46.49942183 [mEh]     -29.17882772 [kcal/mol]    -122.08421520 [kJ/mol]
  Total SAPT2+                    -48.76801429 [mEh]     -30.60239099 [kcal/mol]    -128.04040388 [kJ/mol]

  Special recipe for scaled SAPT0 (see Manual):
    Electrostatics sSAPT0         -62.74653231 [mEh]     -39.37404347 [kcal/mol]    -164.74099788 [kJ/mol]
    Exchange sSAPT0                54.23487720 [mEh]      34.03289925 [kcal/mol]     142.39365048 [kJ/mol]
    Induction sSAPT0              -22.96124185 [mEh]     -14.40839679 [kcal/mol]     -60.28473217 [kJ/mol]
    Dispersion sSAPT0             -16.59236267 [mEh]     -10.41186477 [kcal/mol]     -43.56324218 [kJ/mol]
  Total sSAPT0                    -48.06525962 [mEh]     -30.16140577 [kcal/mol]    -126.19532175 [kJ/mol]
  --------------------------------------------------------------------------------------------------------

*** Psi4 exiting successfully. Buy a developer a beer!
