                               Psi4 1.8.2 release

  ==> Input File <==

--------------------------------------------------------------------------
MEMORY 60 GB

molecule dimer {
-1 1
Br     0.000000     0.000000     0.000000
--
0 1
O      0.475829    -3.025000    -1.272041
H      0.055212    -3.372620    -0.471336
H      0.533315    -2.072946    -1.193364
O      1.556372    -1.998430     2.295902
H      1.091818    -1.647091     1.556228
H      1.428739    -1.429902     3.042221
O     -1.645126    -1.882973     1.903576
H     -1.530895    -2.707178     1.398897
H     -1.093437    -1.199086     1.499601
O      1.518153     2.079534     2.428210
H      1.233613     2.008716     3.366920
H      1.307645     1.205860     1.999083

units ang
no_reorient
no_com
symmetry c1
}

set {
basis        aug-cc-pVTZ
scf_type     df
}

energy("sapt2+")
--------------------------------------------------------------------------

  //              Dimer HF             //
    Molecular point group: c1
  Charge       = -1
  Multiplicity = 1
  Basis Set: AUG-CC-PVTZ
    Blend: AUG-CC-PVTZ
  Basis Set: (AUG-CC-PVTZ AUX)
    Blend: AUG-CC-PVTZ-JKFIT
  @DF-RHF Final Energy: -2876.80692101651221
    Total Energy =                      -2876.8069210165122058
 Dipole X            :        -35.1647674           34.5212032           -0.6435643
 Dipole Y            :         91.3802742          -90.3840869            0.9961873
 Dipole Z            :       -102.4364729          102.1272740           -0.3091989
 Magnitude           :                                                    1.2256297
  //            Monomer A HF           //
    Molecular point group: c1
  Multiplicity = 1
  Basis Set: AUG-CC-PVTZ
    Blend: AUG-CC-PVTZ
  Basis Set: (AUG-CC-PVTZ AUX)
    Blend: AUG-CC-PVTZ-JKFIT
  @DF-RHF Final Energy: -2572.53372080005602
    Total Energy =                      -2572.5337208000560167
  //            Monomer B HF           //
    Molecular point group: c1

    Geometry (in Angstrom), charge = 0, multiplicity = 1:

       Center              X                  Y                   Z               Mass
    ------------   -----------------  -----------------  -----------------  -----------------
      Gh(BR)          0.000000000000     0.000000000000     0.000000000000    78.918337600000
         O            0.475829000000    -3.025000000000    -1.272041000000    15.994914619570
         H            0.055212000000    -3.372620000000    -0.471336000000     1.007825032230
         H            0.533315000000    -2.072946000000    -1.193364000000     1.007825032230
         O            1.556372000000    -1.998430000000     2.295902000000    15.994914619570
         H            1.091818000000    -1.647091000000     1.556228000000     1.007825032230
         H            1.428739000000    -1.429902000000     3.042221000000     1.007825032230
         O           -1.645126000000    -1.882973000000     1.903576000000    15.994914619570
         H           -1.530895000000    -2.707178000000     1.398897000000     1.007825032230
         H           -1.093437000000    -1.199086000000     1.499601000000     1.007825032230
         O            1.518153000000     2.079534000000     2.428210000000    15.994914619570
         H            1.233613000000     2.008716000000     3.366920000000     1.007825032230
         H            1.307645000000     1.205860000000     1.999083000000     1.007825032230

  Charge       = 0
  Multiplicity = 1
  Basis Set: AUG-CC-PVTZ
    Blend: AUG-CC-PVTZ
  Basis Set: (AUG-CC-PVTZ AUX)
    Blend: AUG-CC-PVTZ-JKFIT

    Orbital Energies [Eh]
    ---------------------

    Doubly Occupied:

       1A    -20.593160     2A    -20.588492     3A    -20.586634
       4A    -20.584671     5A     -1.380195     6A     -1.370008
       7A     -1.367948     8A     -1.352593     9A     -0.757672
      10A     -0.744641    11A     -0.740756    12A     -0.720903
      13A     -0.605909    14A     -0.598635    15A     -0.592249
      16A     -0.589496    17A     -0.541929    18A     -0.527982
      19A     -0.523808    20A     -0.522240

  @DF-RHF Final Energy:  -304.22548899050861

   => Energetics <=

    Nuclear Repulsion Energy =            113.9428543628624055
    One-Electron Energy =                -645.7568426972619591
    Two-Electron Energy =                 227.5884993438910158
    Total Energy =                       -304.2254889905085520
 Dipole X            :        -35.0301366           34.5212032           -0.5089334
 Dipole Y            :         90.6421183          -90.3840869            0.2580314
 Dipole Z            :       -101.7519613          102.1272740            0.3753127
 Magnitude           :                                                    0.6829737

    SAPT Results
  --------------------------------------------------------------------------------------------------------
    Electrostatics                -83.96103217 [mEh]     -52.68634312 [kcal/mol]    -220.43965960 [kJ/mol]
      Elst10,r                    -83.50190435 [mEh]     -52.39823606 [kcal/mol]    -219.23421967 [kJ/mol]
      Elst12,r                     -0.45912782 [mEh]      -0.28810706 [kcal/mol]      -1.20543993 [kJ/mol]

    Exchange                       72.01968917 [mEh]      45.19303725 [kcal/mol]     189.08766787 [kJ/mol]
      Exch10                       64.52656655 [mEh]      40.49103182 [kcal/mol]     169.41447714 [kJ/mol]
      Exch10(S^2)                  63.52502007 [mEh]      39.86255192 [kcal/mol]     166.78491722 [kJ/mol]
      Exch11(S^2)                   2.56185028 [mEh]       1.60758532 [kcal/mol]       6.72613698 [kJ/mol]
      Exch12(S^2)                   4.93127234 [mEh]       3.09442011 [kcal/mol]      12.94705374 [kJ/mol]

    Induction                     -31.45145814 [mEh]     -19.73608794 [kcal/mol]     -82.57579196 [kJ/mol]
      Ind20,r                     -57.66453522 [mEh]     -36.18504215 [kcal/mol]    -151.39821635 [kJ/mol]
      Ind22                        -7.70167602 [mEh]      -4.83287467 [kcal/mol]     -20.22074760 [kJ/mol]
      Exch-Ind20,r                 37.33232691 [mEh]      23.42638881 [kcal/mol]      98.01601080 [kJ/mol]
      Exch-Ind22                    4.98610603 [mEh]       3.12882877 [kcal/mol]      13.09101958 [kJ/mol]
      delta HF,r (2)               -8.40367984 [mEh]      -5.27338872 [kcal/mol]     -22.06385838 [kJ/mol]

    Dispersion                    -23.76425000 [mEh]     -14.91229201 [kcal/mol]     -62.39302978 [kJ/mol]
      Disp20                      -27.34056859 [mEh]     -17.15646581 [kcal/mol]     -71.78265294 [kJ/mol]
      Disp21                        2.01603716 [mEh]       1.26508242 [kcal/mol]       5.29310484 [kJ/mol]
      Disp22 (SDQ)                 -0.09923773 [mEh]      -0.06227262 [kcal/mol]      -0.26054862 [kJ/mol]
      Disp22 (T)                   -4.30487330 [mEh]      -2.70134878 [kcal/mol]     -11.30244329 [kJ/mol]
      Est. Disp22 (T)              -4.92805629 [mEh]      -3.09240201 [kcal/mol]     -12.93861001 [kJ/mol]
      Exch-Disp20                   6.58757545 [mEh]       4.13376600 [kcal/mol]      17.29567696 [kJ/mol]

  Total HF                        -47.71122595 [mEh]     -29.93924629 [kcal/mol]    -125.26580647 [kJ/mol]
  Total SAPT0                     -68.46421909 [mEh]     -42.96194609 [kcal/mol]    -179.75278245 [kJ/mol]
  Total SAPT2                     -64.14579428 [mEh]     -40.25209361 [kcal/mol]    -168.41475968 [kJ/mol]
  Total SAPT2+                    -67.15705114 [mEh]     -42.14168582 [kcal/mol]    -176.32081347 [kJ/mol]

  Special recipe for scaled SAPT0 (see Manual):
    Electrostatics sSAPT0         -83.50190435 [mEh]     -52.39823606 [kcal/mol]    -219.23421967 [kJ/mol]
    Exchange sSAPT0                64.52656655 [mEh]      40.49103182 [kcal/mol]     169.41447714 [kJ/mol]
    Induction sSAPT0              -26.94213869 [mEh]     -16.90644727 [kcal/mol]     -70.73657538 [kJ/mol]
    Dispersion sSAPT0             -20.43647229 [mEh]     -12.82407997 [kcal/mol]     -53.65595060 [kJ/mol]
  Total sSAPT0                    -66.35394877 [mEh]     -41.63773148 [kcal/mol]    -174.21226851 [kJ/mol]
  --------------------------------------------------------------------------------------------------------

*** Psi4 exiting successfully. Buy a developer a beer!
