                               Psi4 1.8.2 release

  ==> Input File <==

--------------------------------------------------------------------------
MEMORY 60 GB

molecule dimer {
-1 1
Br     0.000000     0.000000     0.000000
--
0 1
O      2.943776    -1.291586    -0.717929
H      3.240026    -1.464467     0.202400
H      1.978967    -1.068027    -0.600416
O     -0.095928    -0.517762     3.548290
H     -0.814866    -1.197163     3.491646
H     -0.072377    -0.113912     2.693842
O      0.527750    -0.312189    -3.389362
H      0.441500     0.034753    -2.536104
H      1.092442     0.303107    -3.915709
O     -1.833587     2.369462     2.018259
H     -2.428429     3.194020     1.901604
H     -1.874762     2.017001     1.165854
O     -0.596122    -3.194149    -0.160636
H     -1.524899    -3.188801     0.101012
H     -0.342956    -2.240154    -0.160816
O      2.451296     2.621292    -0.011617
H      1.651985     2.047015    -0.019684
H      3.130850     2.123247    -0.509532

units ang
no_reorient
no_com
symmetry c1
}

set {
basis        aug-cc-pVTZ
scf_type     df
}

energy("sapt2+")
--------------------------------------------------------------------------

  //              Dimer HF             //
    Molecular point group: c1
  Charge       = -1
  Multiplicity = 1
  Basis Set: AUG-CC-PVTZ
    Blend: AUG-CC-PVTZ
  Basis Set: (AUG-CC-PVTZ AUX)
    Blend: AUG-CC-PVTZ-JKFIT
  @DF-RHF Final Energy: -3028.93409610184835
    Total Energy =                      -3028.9340961018488088
 Dipole X            :        -61.6423641           59.8192068           -1.8231573
 Dipole Y            :          4.9971850           -4.0682723            0.9289127
 Dipole Z            :        -23.3212444           22.8848423           -0.4364021
 Magnitude           :                                                    2.0921826
  //            Monomer A HF           //
    Molecular point group: c1
  Multiplicity = 1
  Basis Set: AUG-CC-PVTZ
    Blend: AUG-CC-PVTZ
  Basis Set: (AUG-CC-PVTZ AUX)
    Blend: AUG-CC-PVTZ-JKFIT
  @DF-RHF Final Energy: -2572.53373619182594
    Total Energy =                      -2572.5337361918259376
  //            Monomer B HF           //
    Molecular point group: c1

    Geometry (in Angstrom), charge = 0, multiplicity = 1:

       Center              X                  Y                   Z               Mass
    ------------   -----------------  -----------------  -----------------  -----------------
      Gh(BR)          0.000000000000     0.000000000000     0.000000000000    78.918337600000
         O            2.943776000000    -1.291586000000    -0.717929000000    15.994914619570
         H            3.240026000000    -1.464467000000     0.202400000000     1.007825032230
         H            1.978967000000    -1.068027000000    -0.600416000000     1.007825032230
         O           -0.095928000000    -0.517762000000     3.548290000000    15.994914619570
         H           -0.814866000000    -1.197163000000     3.491646000000     1.007825032230
         H           -0.072377000000    -0.113912000000     2.693842000000     1.007825032230
         O            0.527750000000    -0.312189000000    -3.389362000000    15.994914619570
         H            0.441500000000     0.034753000000    -2.536104000000     1.007825032230
         H            1.092442000000     0.303107000000    -3.915709000000     1.007825032230
         O           -1.833587000000     2.369462000000     2.018259000000    15.994914619570
         H           -2.428429000000     3.194020000000     1.901604000000     1.007825032230
         H           -1.874762000000     2.017001000000     1.165854000000     1.007825032230
         O           -0.596122000000    -3.194149000000    -0.160636000000    15.994914619570
         H           -1.524899000000    -3.188801000000     0.101012000000     1.007825032230
         H           -0.342956000000    -2.240154000000    -0.160816000000     1.007825032230
         O            2.451296000000     2.621292000000    -0.011617000000    15.994914619570
         H            1.651985000000     2.047015000000    -0.019684000000     1.007825032230
         H            3.130850000000     2.123247000000    -0.509532000000     1.007825032230

  Charge       = 0
  Multiplicity = 1
  Basis Set: AUG-CC-PVTZ
    Blend: AUG-CC-PVTZ
  Basis Set: (AUG-CC-PVTZ AUX)
    Blend: AUG-CC-PVTZ-JKFIT

    Orbital Energies [Eh]
    ---------------------

    Doubly Occupied:

       1A    -20.589452     2A    -20.588970     3A    -20.587375
       4A    -20.580927     5A    -20.579434     6A    -20.572182
       7A     -1.369482     8A     -1.367049     9A     -1.360873
      10A     -1.353698    11A     -1.351481    12A     -1.350602
      13A     -0.740708    14A     -0.723758    15A     -0.720769
      16A     -0.716195    17A     -0.715731    18A     -0.711758
      19A     -0.607587    20A     -0.597777    21A     -0.596274
      22A     -0.591555    23A     -0.588142    24A     -0.584480
      25A     -0.528760    26A     -0.524850    27A     -0.523442
      28A     -0.523254    29A     -0.517439    30A     -0.512096

  @DF-RHF Final Energy:  -456.33553284499840

   => Energetics <=

    Nuclear Repulsion Energy =            216.9374497317209602
    One-Electron Energy =               -1061.1937594931987405
    Two-Electron Energy =                 387.9207769164793262
    Total Energy =                       -456.3355328449983972
 Dipole X            :        -61.2562344           59.8192068           -1.4370276
 Dipole Y            :          4.7420262           -4.0682723            0.6737539
 Dipole Z            :        -23.3902021           22.8848423           -0.5053599
 Magnitude           :                                                    1.6656474

    SAPT Results
  --------------------------------------------------------------------------------------------------------
    Electrostatics               -104.00381463 [mEh]     -65.26337899 [kcal/mol]    -273.06197770 [kJ/mol]
      Elst10,r                   -103.82341385 [mEh]     -65.15017579 [kcal/mol]    -272.58833552 [kJ/mol]
      Elst12,r                     -0.18040078 [mEh]      -0.11320320 [kcal/mol]      -0.47364218 [kJ/mol]

    Exchange                       78.90741484 [mEh]      49.51515037 [kcal/mol]     207.17138913 [kJ/mol]
      Exch10                       69.64510610 [mEh]      43.70296388 [kcal/mol]     182.85320087 [kJ/mol]
      Exch10(S^2)                  68.83732614 [mEh]      43.19607430 [kcal/mol]     180.73237489 [kJ/mol]
      Exch11(S^2)                   3.62652944 [mEh]       2.27568158 [kcal/mol]       9.52145172 [kJ/mol]
      Exch12(S^2)                   5.63577931 [mEh]       3.53650491 [kcal/mol]      14.79673654 [kJ/mol]

    Induction                     -33.97638775 [mEh]     -21.32050520 [kcal/mol]     -89.20499376 [kJ/mol]
      Ind20,r                     -58.84714380 [mEh]     -36.92714024 [kcal/mol]    -154.50315475 [kJ/mol]
      Ind22                        -8.53239211 [mEh]      -5.35415688 [kcal/mol]     -22.40179240 [kJ/mol]
      Exch-Ind20,r                 35.89677453 [mEh]      22.52556610 [kcal/mol]      94.24696855 [kJ/mol]
      Exch-Ind22                    5.20476162 [mEh]       3.26603723 [kcal/mol]      13.66509976 [kJ/mol]
      delta HF,r (2)               -7.69838800 [mEh]      -4.83081140 [kcal/mol]     -20.21211492 [kJ/mol]

    Dispersion                    -30.16462679 [mEh]     -18.92858909 [kcal/mol]     -79.19721674 [kJ/mol]
      Disp20                      -33.88169586 [mEh]     -21.26108514 [kcal/mol]     -88.95638023 [kJ/mol]
      Disp21                        2.36556994 [mEh]       1.48441755 [kcal/mol]       6.21080301 [kJ/mol]
      Disp22 (SDQ)                 -0.06809324 [mEh]      -0.04272915 [kcal/mol]      -0.17877877 [kJ/mol]
      Disp22 (T)                   -5.42699962 [mEh]      -3.40549367 [kcal/mol]     -14.24858553 [kJ/mol]
      Est. Disp22 (T)              -6.22118543 [mEh]      -3.90385279 [kcal/mol]     -16.33372009 [kJ/mol]
      Exch-Disp20                   7.64077780 [mEh]       4.79466046 [kcal/mol]      20.06085935 [kJ/mol]

  Total HF                        -64.82706502 [mEh]     -40.67959746 [kcal/mol]    -170.20343577 [kJ/mol]
  Total SAPT0                     -91.06798309 [mEh]     -57.14602215 [kcal/mol]    -239.09895666 [kJ/mol]
  Total SAPT2                     -85.31370561 [mEh]     -53.53515851 [kcal/mol]    -223.99110321 [kJ/mol]
  Total SAPT2+                    -89.23741434 [mEh]     -55.99732291 [kcal/mol]    -234.29279906 [kJ/mol]

  Special recipe for scaled SAPT0 (see Manual):
    Electrostatics sSAPT0        -103.82341385 [mEh]     -65.15017579 [kcal/mol]    -272.58833552 [kJ/mol]
    Exchange sSAPT0                69.64510610 [mEh]      43.70296388 [kcal/mol]     182.85320087 [kJ/mol]
    Induction sSAPT0              -29.37016499 [mEh]     -18.43005678 [kcal/mol]     -77.11135756 [kJ/mol]
    Dispersion sSAPT0             -25.96876438 [mEh]     -16.29564567 [kcal/mol]     -68.18098148 [kJ/mol]
  Total sSAPT0                    -89.51723713 [mEh]     -56.17291436 [kcal/mol]    -235.02747370 [kJ/mol]
  --------------------------------------------------------------------------------------------------------

*** Psi4 exiting successfully. Buy a developer a beer!
