                               Psi4 1.8.2 release

  ==> Input File <==

--------------------------------------------------------------------------
MEMORY 60 GB

molecule dimer {
-1 1
Br     0.000000     0.000000     0.000000
--
0 1
O      2.118565     1.377600    -2.222428
H      1.524510     1.021254    -1.485349
H      2.481666     0.625784    -2.731423
O      1.458491    -2.150671    -1.922163
H      0.842838    -1.646061    -1.317309
H      2.186106    -1.568774    -2.026988
O      1.457423     0.149191     3.119476
H      1.197132    -0.104181     2.235110
H      2.162739    -0.500210     3.388672
O     -0.225623    -2.782781     2.045966
H     -0.289413    -2.198172     2.800474
H     -0.483719    -2.262648     1.280829
O      3.373774    -0.713926     0.596505
H      3.202858    -1.598986     0.946685
H      2.570736    -0.305260     0.273215

units ang
no_reorient
no_com
symmetry c1
}

set {
basis        aug-cc-pVTZ
scf_type     df
}

energy("sapt2+")
--------------------------------------------------------------------------

  //              Dimer HF             //
    Molecular point group: c1
  Charge       = -1
  Multiplicity = 1
  Basis Set: AUG-CC-PVTZ
    Blend: AUG-CC-PVTZ
  Basis Set: (AUG-CC-PVTZ AUX)
    Blend: AUG-CC-PVTZ-JKFIT
  @DF-RHF Final Energy: -2952.87705217131543
    Total Energy =                      -2952.8770521713154267
 Dipole X            :       -154.2891097          152.7966272           -1.4924825
 Dipole Y            :         78.7234573          -78.4273192            0.2961381
 Dipole Z            :        -30.6751089           30.8077590            0.1326501
 Magnitude           :                                                    1.5273499
  //            Monomer A HF           //
    Molecular point group: c1
  Multiplicity = 1
  Basis Set: AUG-CC-PVTZ
    Blend: AUG-CC-PVTZ
  Basis Set: (AUG-CC-PVTZ AUX)
    Blend: AUG-CC-PVTZ-JKFIT
  @DF-RHF Final Energy: -2572.53373114693022
    Total Energy =                      -2572.5337311469302222
  //            Monomer B HF           //
    Molecular point group: c1

    Geometry (in Angstrom), charge = 0, multiplicity = 1:

       Center              X                  Y                   Z               Mass
    ------------   -----------------  -----------------  -----------------  -----------------
      Gh(BR)          0.000000000000     0.000000000000     0.000000000000    78.918337600000
         O            2.118565000000     1.377600000000    -2.222428000000    15.994914619570
         H            1.524510000000     1.021254000000    -1.485349000000     1.007825032230
         H            2.481666000000     0.625784000000    -2.731423000000     1.007825032230
         O            1.458491000000    -2.150671000000    -1.922163000000    15.994914619570
         H            0.842838000000    -1.646061000000    -1.317309000000     1.007825032230
         H            2.186106000000    -1.568774000000    -2.026988000000     1.007825032230
         O            1.457423000000     0.149191000000     3.119476000000    15.994914619570
         H            1.197132000000    -0.104181000000     2.235110000000     1.007825032230
         H            2.162739000000    -0.500210000000     3.388672000000     1.007825032230
         O           -0.225623000000    -2.782781000000     2.045966000000    15.994914619570
         H           -0.289413000000    -2.198172000000     2.800474000000     1.007825032230
         H           -0.483719000000    -2.262648000000     1.280829000000     1.007825032230
         O            3.373774000000    -0.713926000000     0.596505000000    15.994914619570
         H            3.202858000000    -1.598986000000     0.946685000000     1.007825032230
         H            2.570736000000    -0.305260000000     0.273215000000     1.007825032230

  Charge       = 0
  Multiplicity = 1
  Basis Set: AUG-CC-PVTZ
    Blend: AUG-CC-PVTZ
  Basis Set: (AUG-CC-PVTZ AUX)
    Blend: AUG-CC-PVTZ-JKFIT

    Orbital Energies [Eh]
    ---------------------

    Doubly Occupied:

       1A    -20.597477     2A    -20.596572     3A    -20.591072
       4A    -20.588272     5A    -20.585603     6A     -1.378228
       7A     -1.373823     8A     -1.373291     9A     -1.359933
      10A     -1.357247    11A     -0.755403    12A     -0.742452
      13A     -0.738651    14A     -0.729428    15A     -0.726705
      16A     -0.616294    17A     -0.603903    18A     -0.600377
      19A     -0.591142    20A     -0.589949    21A     -0.542158
      22A     -0.534027    23A     -0.531334    24A     -0.529534
      25A     -0.519614

  @DF-RHF Final Energy:  -380.27890013877874

   => Energetics <=

    Nuclear Repulsion Energy =            175.9063936459520789
    One-Electron Energy =                -874.0656035669416042
    Two-Electron Energy =                 317.8803097822107588
    Total Energy =                       -380.2789001387787380
 Dipole X            :       -153.3068075          152.7966272           -0.5101803
 Dipole Y            :         78.2080128          -78.4273192           -0.2193063
 Dipole Z            :        -30.7341669           30.8077590            0.0735922
 Magnitude           :                                                    0.5601741

    SAPT Results
  --------------------------------------------------------------------------------------------------------
    Electrostatics               -101.41077572 [mEh]     -63.63622251 [kcal/mol]    -266.25395498 [kJ/mol]
      Elst10,r                   -101.37600542 [mEh]     -63.61440381 [kcal/mol]    -266.16266556 [kJ/mol]
      Elst12,r                     -0.03477031 [mEh]      -0.02181870 [kcal/mol]      -0.09128943 [kJ/mol]

    Exchange                       79.21486674 [mEh]      49.70807934 [kcal/mol]     207.97860396 [kJ/mol]
      Exch10                       70.27631871 [mEh]      44.09905577 [kcal/mol]     184.51044936 [kJ/mol]
      Exch10(S^2)                  69.28139712 [mEh]      43.47473305 [kcal/mol]     181.89828308 [kJ/mol]
      Exch11(S^2)                   3.46767500 [mEh]       2.17599892 [kcal/mol]       9.10437947 [kJ/mol]
      Exch12(S^2)                   5.47087302 [mEh]       3.43302465 [kcal/mol]      14.36377514 [kJ/mol]

    Induction                     -36.55791283 [mEh]     -22.94043664 [kcal/mol]     -95.98278690 [kJ/mol]
      Ind20,r                     -62.21995321 [mEh]     -39.04361009 [kcal/mol]    -163.35846463 [kJ/mol]
      Ind22                        -8.41466480 [mEh]      -5.28028188 [kcal/mol]     -22.09269940 [kJ/mol]
      Exch-Ind20,r                 38.28695126 [mEh]      24.02542464 [kcal/mol]     100.52237667 [kJ/mol]
      Exch-Ind22                    5.17795088 [mEh]       3.24921323 [kcal/mol]      13.59470815 [kJ/mol]
      delta HF,r (2)               -9.38819695 [mEh]      -5.89118253 [kcal/mol]     -24.64870770 [kJ/mol]

    Dispersion                    -28.25078925 [mEh]     -17.72763790 [kcal/mol]     -74.17243695 [kJ/mol]
      Disp20                      -32.13470328 [mEh]     -20.16483074 [kcal/mol]     -84.36965184 [kJ/mol]
      Disp21                        2.46350806 [mEh]       1.54587465 [kcal/mol]       6.46793952 [kJ/mol]
      Disp22 (SDQ)                 -0.13377337 [mEh]      -0.08394406 [kcal/mol]      -0.35122194 [kJ/mol]
      Disp22 (T)                   -5.17830432 [mEh]      -3.24943502 [kcal/mol]     -13.59563612 [kJ/mol]
      Est. Disp22 (T)              -5.91058050 [mEh]      -3.70894526 [kcal/mol]     -15.51822698 [kJ/mol]
      Exch-Disp20                   7.46475985 [mEh]       4.68420752 [kcal/mol]      19.59872427 [kJ/mol]

  Total HF                        -64.42088561 [mEh]     -40.42471603 [kcal/mol]    -169.13701186 [kJ/mol]
  Total SAPT0                     -89.09082904 [mEh]     -55.90533925 [kcal/mol]    -233.90793942 [kJ/mol]
  Total SAPT2                     -83.42376525 [mEh]     -52.34920303 [kcal/mol]    -219.02906549 [kJ/mol]
  Total SAPT2+                    -87.00461107 [mEh]     -54.59621771 [kcal/mol]    -228.43057488 [kJ/mol]

  Special recipe for scaled SAPT0 (see Manual):
    Electrostatics sSAPT0        -101.37600542 [mEh]     -63.61440381 [kcal/mol]    -266.16266556 [kJ/mol]
    Exchange sSAPT0                70.27631871 [mEh]      44.09905577 [kcal/mol]     184.51044936 [kJ/mol]
    Induction sSAPT0              -31.64792878 [mEh]     -19.85937513 [kcal/mol]     -83.09162555 [kJ/mol]
    Dispersion sSAPT0             -24.34370801 [mEh]     -15.27590741 [kcal/mol]     -63.91439658 [kJ/mol]
  Total sSAPT0                    -87.09132350 [mEh]     -54.65063058 [kcal/mol]    -228.65823834 [kJ/mol]
  --------------------------------------------------------------------------------------------------------

*** Psi4 exiting successfully. Buy a developer a beer!
