                               Psi4 1.8.2 release

  ==> Input File <==

--------------------------------------------------------------------------
MEMORY 60 GB

molecule dimer {
-1 1
Br     0.000000     0.000000     0.000000
--
0 1
O      1.383396     2.880375     1.689837
H      0.998655     2.001846     1.765023
H      1.625502     2.922174     0.742268
O     -2.899952    -1.542526     0.562001
H     -2.681656    -1.715339     1.490147
H     -2.036155    -1.221167     0.231828
O     -1.229115     0.720300     3.121857
H     -1.534913    -0.162096     3.356935
H     -0.998486     0.789810     2.220954
O     -2.495561     2.154699    -0.039728
H     -1.710013     1.651982    -0.136262
H     -3.067662     1.525619     0.422586
O      0.532476    -3.145512     0.853930
H      1.023018    -3.992223     0.651557
H      0.354709    -2.697916    -0.018524

units ang
no_reorient
no_com
symmetry c1
}

set {
basis        aug-cc-pVTZ
scf_type     df
}

energy("sapt2+")
--------------------------------------------------------------------------

  //              Dimer HF             //
    Molecular point group: c1
  Charge       = -1
  Multiplicity = 1
  Basis Set: AUG-CC-PVTZ
    Blend: AUG-CC-PVTZ
  Basis Set: (AUG-CC-PVTZ AUX)
    Blend: AUG-CC-PVTZ-JKFIT
  @DF-RHF Final Energy: -2952.87148854569068
    Total Energy =                      -2952.8714885456906813
 Dipole X            :         87.8388669          -86.3549074            1.4839596
 Dipole Y            :        -16.5202530           14.4401116           -2.0801413
 Dipole Z            :       -115.3063920          113.8176149           -1.4887770
 Magnitude           :                                                    2.9572928
  //            Monomer A HF           //
    Molecular point group: c1
  Multiplicity = 1
  Basis Set: AUG-CC-PVTZ
    Blend: AUG-CC-PVTZ
  Basis Set: (AUG-CC-PVTZ AUX)
    Blend: AUG-CC-PVTZ-JKFIT
  @DF-RHF Final Energy: -2572.53372606007269
    Total Energy =                      -2572.5337260600726950
  //            Monomer B HF           //
    Molecular point group: c1

    Geometry (in Angstrom), charge = 0, multiplicity = 1:

       Center              X                  Y                   Z               Mass
    ------------   -----------------  -----------------  -----------------  -----------------
      Gh(BR)          0.000000000000     0.000000000000     0.000000000000    78.918337600000
         O            1.383396000000     2.880375000000     1.689837000000    15.994914619570
         H            0.998655000000     2.001846000000     1.765023000000     1.007825032230
         H            1.625502000000     2.922174000000     0.742268000000     1.007825032230
         O           -2.899952000000    -1.542526000000     0.562001000000    15.994914619570
         H           -2.681656000000    -1.715339000000     1.490147000000     1.007825032230
         H           -2.036155000000    -1.221167000000     0.231828000000     1.007825032230
         O           -1.229115000000     0.720300000000     3.121857000000    15.994914619570
         H           -1.534913000000    -0.162096000000     3.356935000000     1.007825032230
         H           -0.998486000000     0.789810000000     2.220954000000     1.007825032230
         O           -2.495561000000     2.154699000000    -0.039728000000    15.994914619570
         H           -1.710013000000     1.651982000000    -0.136262000000     1.007825032230
         H           -3.067662000000     1.525619000000     0.422586000000     1.007825032230
         O            0.532476000000    -3.145512000000     0.853930000000    15.994914619570
         H            1.023018000000    -3.992223000000     0.651557000000     1.007825032230
         H            0.354709000000    -2.697916000000    -0.018524000000     1.007825032230

  Charge       = 0
  Multiplicity = 1
  Basis Set: AUG-CC-PVTZ
    Blend: AUG-CC-PVTZ
  Basis Set: (AUG-CC-PVTZ AUX)
    Blend: AUG-CC-PVTZ-JKFIT

    Orbital Energies [Eh]
    ---------------------

    Doubly Occupied:

       1A    -20.597485     2A    -20.596212     3A    -20.580592
       4A    -20.573720     5A    -20.573369     6A     -1.373041
       7A     -1.371563     8A     -1.364840     9A     -1.356846
      10A     -1.351113    11A     -0.757845    12A     -0.727141
      13A     -0.724039    14A     -0.720058    15A     -0.708544
      16A     -0.614217    17A     -0.598652    18A     -0.598019
      19A     -0.588725    20A     -0.587055    21A     -0.535749
      22A     -0.530226    23A     -0.527348    24A     -0.516731
      25A     -0.511723

  @DF-RHF Final Energy:  -380.28433783217940

   => Energetics <=

    Nuclear Repulsion Energy =            167.3640826937919428
    One-Electron Energy =                -857.3271290945039027
    Two-Electron Energy =                 309.6787085685325565
    Total Energy =                       -380.2843378321794034
 Dipole X            :         87.1984425          -86.3549074            0.8435352
 Dipole Y            :        -16.4839884           14.4401116           -2.0438767
 Dipole Z            :       -114.8272545          113.8176149           -1.0096395
 Magnitude           :                                                    2.4307109

    SAPT Results
  --------------------------------------------------------------------------------------------------------
    Electrostatics                -89.13461444 [mEh]     -55.93281500 [kcal/mol]    -234.02289798 [kJ/mol]
      Elst10,r                    -89.03178332 [mEh]     -55.86828750 [kcal/mol]    -233.75291491 [kJ/mol]
      Elst12,r                     -0.10283112 [mEh]      -0.06452750 [kcal/mol]      -0.26998306 [kJ/mol]

    Exchange                       69.44841565 [mEh]      43.57953876 [kcal/mol]     182.33679016 [kJ/mol]
      Exch10                       61.59582120 [mEh]      38.65196135 [kcal/mol]     161.71980627 [kJ/mol]
      Exch10(S^2)                  60.84301873 [mEh]      38.17957066 [kcal/mol]     159.74332366 [kJ/mol]
      Exch11(S^2)                   2.72688678 [mEh]       1.71114729 [kcal/mol]       7.15944024 [kJ/mol]
      Exch12(S^2)                   5.12570767 [mEh]       3.21643013 [kcal/mol]      13.45754365 [kJ/mol]

    Induction                     -28.68445019 [mEh]     -17.99976424 [kcal/mol]     -75.31101359 [kJ/mol]
      Ind20,r                     -53.43753517 [mEh]     -33.53255958 [kcal/mol]    -140.30022927 [kJ/mol]
      Ind22                        -7.53722231 [mEh]      -4.72967841 [kcal/mol]     -19.78897445 [kJ/mol]
      Exch-Ind20,r                 34.32509511 [mEh]      21.53932237 [kcal/mol]      90.12052478 [kJ/mol]
      Exch-Ind22                    4.84146344 [mEh]       3.03806417 [kcal/mol]      12.71126050 [kJ/mol]
      delta HF,r (2)               -6.87625124 [mEh]      -4.31491280 [kcal/mol]     -18.05359515 [kJ/mol]

    Dispersion                    -26.07952643 [mEh]     -16.36514991 [kcal/mol]     -68.47178720 [kJ/mol]
      Disp20                      -29.63692640 [mEh]     -18.59745209 [kcal/mol]     -77.81173955 [kJ/mol]
      Disp21                        2.23744624 [mEh]       1.40401871 [kcal/mol]       5.87441430 [kJ/mol]
      Disp22 (SDQ)                 -0.18543618 [mEh]      -0.11636296 [kcal/mol]      -0.48686262 [kJ/mol]
      Disp22 (T)                   -4.71641584 [mEh]      -2.95959562 [kcal/mol]     -12.38294809 [kJ/mol]
      Est. Disp22 (T)              -5.43092749 [mEh]      -3.40795845 [kcal/mol]     -14.25889816 [kJ/mol]
      Exch-Disp20                   6.93631740 [mEh]       4.35260488 [kcal/mol]      18.21129883 [kJ/mol]

  Total HF                        -53.42465344 [mEh]     -33.52447617 [kcal/mol]    -140.26640828 [kJ/mol]
  Total SAPT0                     -76.12526244 [mEh]     -47.76932337 [kcal/mol]    -199.86684900 [kJ/mol]
  Total SAPT2                     -71.07125798 [mEh]     -44.59788770 [kcal/mol]    -186.59756213 [kJ/mol]
  Total SAPT2+                    -74.45017541 [mEh]     -46.71819039 [kcal/mol]    -195.46890861 [kJ/mol]

  Special recipe for scaled SAPT0 (see Manual):
    Electrostatics sSAPT0         -89.03178332 [mEh]     -55.86828750 [kcal/mol]    -233.75291491 [kJ/mol]
    Exchange sSAPT0                61.59582120 [mEh]      38.65196135 [kcal/mol]     161.71980627 [kJ/mol]
    Induction sSAPT0              -24.69876271 [mEh]     -15.49870759 [kcal/mol]     -64.84659256 [kJ/mol]
    Dispersion sSAPT0             -22.43994391 [mEh]     -14.08127739 [kcal/mol]     -58.91606461 [kJ/mol]
  Total sSAPT0                    -74.57466874 [mEh]     -46.79631114 [kcal/mol]    -195.79576581 [kJ/mol]
  --------------------------------------------------------------------------------------------------------

*** Psi4 exiting successfully. Buy a developer a beer!
