                               Psi4 1.8.2 release

  ==> Input File <==

--------------------------------------------------------------------------
MEMORY 60 GB

molecule dimer {
-1 1
Br     0.000000     0.000000     0.000000
--
0 1
O      1.945893     0.262012    -2.944461
H      2.825168     0.000048    -2.764125
H      1.492154     0.128599    -2.083365
O      1.918090    -2.759463     0.110152
H      2.249433    -3.068366     0.986392
H      1.495298    -1.822514     0.139316
O     -0.118445     3.259334     0.447045
H      0.218183     2.360201     0.174258
H     -0.788624     3.412072    -0.216775
O     -1.467014     0.339355    -3.263026
H     -2.372942     0.465663    -2.906747
H     -0.878477     0.065588    -2.558990
O     -3.316037    -0.369815     0.274592
H     -2.663704    -1.042109     0.576311
H     -3.997139    -0.433657     0.965591
O      3.111664     0.648515     1.096188
H      2.163031     0.405322     0.957248
H      3.130519     1.210000     1.863659
O     -1.031067    -3.136478    -0.817819
H     -0.145501    -2.816616    -0.879827
H     -1.232430    -3.165983     0.108864
O      0.920696    -0.819222     3.154004
H      1.852436    -0.484491     3.317884
H      0.572531    -0.433290     2.303889

units ang
no_reorient
no_com
symmetry c1
}

set {
basis        aug-cc-pVTZ
scf_type     df
}

energy("sapt2+")
--------------------------------------------------------------------------

  //              Dimer HF             //
    Molecular point group: c1
  Charge       = -1
  Multiplicity = 1
  Basis Set: AUG-CC-PVTZ
    Blend: AUG-CC-PVTZ
  Basis Set: (AUG-CC-PVTZ AUX)
    Blend: AUG-CC-PVTZ-JKFIT
  @DF-RHF Final Energy: -3181.05114345304992
    Total Energy =                      -3181.0511434530499173
 Dipole X            :        -37.6525140           37.0956564           -0.5568575
 Dipole Y            :         48.8903850          -48.8033658            0.0870192
 Dipole Z            :         31.7985118          -29.4098398            2.3886719
 Magnitude           :                                                    2.4542649
  //            Monomer A HF           //
    Molecular point group: c1
  Multiplicity = 1
  Basis Set: AUG-CC-PVTZ
    Blend: AUG-CC-PVTZ
  Basis Set: (AUG-CC-PVTZ AUX)
    Blend: AUG-CC-PVTZ-JKFIT
  @DF-RHF Final Energy: -2572.53375372442133
    Total Energy =                      -2572.5337537244213308
  //            Monomer B HF           //
    Molecular point group: c1

    Geometry (in Angstrom), charge = 0, multiplicity = 1:

       Center              X                  Y                   Z               Mass
    ------------   -----------------  -----------------  -----------------  -----------------
      Gh(BR)          0.000000000000     0.000000000000     0.000000000000    78.918337600000
         O            1.945893000000     0.262012000000    -2.944461000000    15.994914619570
         H            2.825168000000     0.000048000000    -2.764125000000     1.007825032230
         H            1.492154000000     0.128599000000    -2.083365000000     1.007825032230
         O            1.918090000000    -2.759463000000     0.110152000000    15.994914619570
         H            2.249433000000    -3.068366000000     0.986392000000     1.007825032230
         H            1.495298000000    -1.822514000000     0.139316000000     1.007825032230
         O           -0.118445000000     3.259334000000     0.447045000000    15.994914619570
         H            0.218183000000     2.360201000000     0.174258000000     1.007825032230
         H           -0.788624000000     3.412072000000    -0.216775000000     1.007825032230
         O           -1.467014000000     0.339355000000    -3.263026000000    15.994914619570
         H           -2.372942000000     0.465663000000    -2.906747000000     1.007825032230
         H           -0.878477000000     0.065588000000    -2.558990000000     1.007825032230
         O           -3.316037000000    -0.369815000000     0.274592000000    15.994914619570
         H           -2.663704000000    -1.042109000000     0.576311000000     1.007825032230
         H           -3.997139000000    -0.433657000000     0.965591000000     1.007825032230
         O            3.111664000000     0.648515000000     1.096188000000    15.994914619570
         H            2.163031000000     0.405322000000     0.957248000000     1.007825032230
         H            3.130519000000     1.210000000000     1.863659000000     1.007825032230
         O           -1.031067000000    -3.136478000000    -0.817819000000    15.994914619570
         H           -0.145501000000    -2.816616000000    -0.879827000000     1.007825032230
         H           -1.232430000000    -3.165983000000     0.108864000000     1.007825032230
         O            0.920696000000    -0.819222000000     3.154004000000    15.994914619570
         H            1.852436000000    -0.484491000000     3.317884000000     1.007825032230
         H            0.572531000000    -0.433290000000     2.303889000000     1.007825032230

  Charge       = 0
  Multiplicity = 1
  Basis Set: AUG-CC-PVTZ
    Blend: AUG-CC-PVTZ
  Basis Set: (AUG-CC-PVTZ AUX)
    Blend: AUG-CC-PVTZ-JKFIT

    Orbital Energies [Eh]
    ---------------------

    Doubly Occupied:

       1A    -20.612978     2A    -20.612911     3A    -20.607520
       4A    -20.590552     5A    -20.587531     6A    -20.578923
       7A    -20.571811     8A    -20.558123     9A     -1.391341
      10A     -1.370683    11A     -1.368325    12A     -1.364930
      13A     -1.363578    14A     -1.361793    15A     -1.360079
      16A     -1.334844    17A     -0.761300    18A     -0.748869
      19A     -0.744229    20A     -0.731655    21A     -0.728269
      22A     -0.719360    23A     -0.716606    24A     -0.709661
      25A     -0.628550    26A     -0.606253    27A     -0.604057
      28A     -0.603106    29A     -0.598194    30A     -0.596243
      31A     -0.592631    32A     -0.562568    33A     -0.552858
      34A     -0.545059    35A     -0.538318    36A     -0.528554
      37A     -0.525007    38A     -0.520650    39A     -0.517861
      40A     -0.498479

  @DF-RHF Final Energy:  -608.44218604812124

   => Energetics <=

    Nuclear Repulsion Energy =            390.3713499663937228
    One-Electron Energy =               -1616.5985454107433270
    Two-Electron Energy =                 617.7850093962282472
    Total Energy =                       -608.4421860481212434
 Dipole X            :        -36.8803779           37.0956564            0.2152785
 Dipole Y            :         48.7085589          -48.8033658           -0.0948069
 Dipole Z            :         31.9818789          -29.4098398            2.5720391
 Magnitude           :                                                    2.5827734

    SAPT Results
  --------------------------------------------------------------------------------------------------------
    Electrostatics               -127.87827016 [mEh]     -80.24482601 [kcal/mol]    -335.74435204 [kJ/mol]
      Elst10,r                   -126.77620174 [mEh]     -79.55326764 [kcal/mol]    -332.85087181 [kJ/mol]
      Elst12,r                     -1.10206842 [mEh]      -0.69155837 [kcal/mol]      -2.89348023 [kJ/mol]

    Exchange                      109.71066805 [mEh]      68.84448357 [kcal/mol]     288.04531927 [kJ/mol]
      Exch10                       96.21854425 [mEh]      60.37804807 [kcal/mol]     252.62175312 [kJ/mol]
      Exch10(S^2)                  95.06700824 [mEh]      59.65544832 [kcal/mol]     249.59839575 [kJ/mol]
      Exch11(S^2)                   5.09683259 [mEh]       3.19831073 [kcal/mol]      13.38173211 [kJ/mol]
      Exch12(S^2)                   8.39529121 [mEh]       5.26812477 [kcal/mol]      22.04183405 [kJ/mol]

    Induction                     -49.82261399 [mEh]     -31.26416229 [kcal/mol]    -130.80925502 [kJ/mol]
      Ind20,r                     -83.99254043 [mEh]     -52.70611485 [kcal/mol]    -220.52238452 [kJ/mol]
      Ind22                       -12.59478385 [mEh]      -7.90334619 [kcal/mol]     -33.06760045 [kJ/mol]
      Exch-Ind20,r                 49.47070726 [mEh]      31.04333748 [kcal/mol]     129.88532401 [kJ/mol]
      Exch-Ind22                    7.41819287 [mEh]       4.65498631 [kcal/mol]      19.47646271 [kJ/mol]
      delta HF,r (2)              -10.12418984 [mEh]      -6.35302504 [kcal/mol]     -26.58105677 [kJ/mol]

    Dispersion                    -42.44207844 [mEh]     -26.63280631 [kcal/mol]    -111.43166159 [kJ/mol]
      Disp20                      -47.92266989 [mEh]     -30.07192936 [kcal/mol]    -125.82095245 [kJ/mol]
      Disp21                        3.86455987 [mEh]       2.42504793 [kcal/mol]      10.14640054 [kJ/mol]
      Disp22 (SDQ)                 -0.22379294 [mEh]      -0.14043219 [kcal/mol]      -0.58756830 [kJ/mol]
      Disp22 (T)                   -7.82762831 [mEh]      -4.91191092 [kcal/mol]     -20.55143530 [kJ/mol]
      Est. Disp22 (T)              -8.92335098 [mEh]      -5.59948728 [kcal/mol]     -23.42825477 [kJ/mol]
      Exch-Disp20                  10.76317550 [mEh]       6.75399459 [kcal/mol]      28.25871338 [kJ/mol]

  Total HF                        -75.20368051 [mEh]     -47.19102198 [kcal/mol]    -197.44723597 [kJ/mol]
  Total SAPT0                    -112.36317489 [mEh]     -70.50895675 [kcal/mol]    -295.00947504 [kJ/mol]
  Total SAPT2                    -105.14971049 [mEh]     -65.98243950 [kcal/mol]    -276.07052685 [kJ/mol]
  Total SAPT2+                   -110.43229454 [mEh]     -69.29731104 [kcal/mol]    -289.93994938 [kJ/mol]

  Special recipe for scaled SAPT0 (see Manual):
    Electrostatics sSAPT0        -126.77620174 [mEh]     -79.55326764 [kcal/mol]    -332.85087181 [kJ/mol]
    Exchange sSAPT0                96.21854425 [mEh]      60.37804807 [kcal/mol]     252.62175312 [kJ/mol]
    Induction sSAPT0              -42.82646038 [mEh]     -26.87400962 [kcal/mol]    -112.44085624 [kJ/mol]
    Dispersion sSAPT0             -36.76361826 [mEh]     -23.06951875 [kcal/mol]     -96.52286645 [kJ/mol]
  Total sSAPT0                   -110.14773614 [mEh]     -69.11874794 [kcal/mol]    -289.19284138 [kJ/mol]
  --------------------------------------------------------------------------------------------------------

*** Psi4 exiting successfully. Buy a developer a beer!
