                               Psi4 1.8.2 release

  ==> Input File <==

--------------------------------------------------------------------------
MEMORY 60 GB

molecule dimer {
-1 1
Br     0.000000     0.000000     0.000000
--
0 1
O     -1.911432     2.433986     1.070897
H     -1.555279     3.089706     1.640643
H     -1.224968     1.718194     1.109894
O     -1.401665     2.429875    -1.811153
H     -1.959056     2.676358    -1.041095
H     -0.686385     1.866479    -1.500724
O     -1.794280    -2.241072     2.073482
H     -1.722283    -2.617890     2.966158
H     -1.034366    -1.621705     2.007902
O      2.505713    -0.505921     1.723979
H      1.700403    -0.507406     1.113190
H      2.107247    -0.320223     2.595222
O      2.946339    -0.264625    -1.581763
H      3.334716     0.559035    -1.244785
H      2.261634    -0.356773    -0.924585

units ang
no_reorient
no_com
symmetry c1
}

set {
basis        aug-cc-pVTZ
scf_type     df
}

energy("sapt2+")
--------------------------------------------------------------------------

  //              Dimer HF             //
    Molecular point group: c1
  Charge       = -1
  Multiplicity = 1
  Basis Set: AUG-CC-PVTZ
    Blend: AUG-CC-PVTZ
  Basis Set: (AUG-CC-PVTZ AUX)
    Blend: AUG-CC-PVTZ-JKFIT
  @DF-RHF Final Energy: -2952.86585697021292
    Total Energy =                      -2952.8658569702129171
 Dipole X            :         -7.5547192            7.5193393           -0.0353799
 Dipole Y            :        -36.2647315           36.4787421            0.2140106
 Dipole Z            :        -32.9066747           35.0078492            2.1011746
 Magnitude           :                                                    2.1123415
  //            Monomer A HF           //
    Molecular point group: c1
  Multiplicity = 1
  Basis Set: AUG-CC-PVTZ
    Blend: AUG-CC-PVTZ
  Basis Set: (AUG-CC-PVTZ AUX)
    Blend: AUG-CC-PVTZ-JKFIT
  @DF-RHF Final Energy: -2572.53373245410558
    Total Energy =                      -2572.5337324541055750
  //            Monomer B HF           //
    Molecular point group: c1

    Geometry (in Angstrom), charge = 0, multiplicity = 1:

       Center              X                  Y                   Z               Mass
    ------------   -----------------  -----------------  -----------------  -----------------
      Gh(BR)          0.000000000000     0.000000000000     0.000000000000    78.918337600000
         O           -1.911432000000     2.433986000000     1.070897000000    15.994914619570
         H           -1.555279000000     3.089706000000     1.640643000000     1.007825032230
         H           -1.224968000000     1.718194000000     1.109894000000     1.007825032230
         O           -1.401665000000     2.429875000000    -1.811153000000    15.994914619570
         H           -1.959056000000     2.676358000000    -1.041095000000     1.007825032230
         H           -0.686385000000     1.866479000000    -1.500724000000     1.007825032230
         O           -1.794280000000    -2.241072000000     2.073482000000    15.994914619570
         H           -1.722283000000    -2.617890000000     2.966158000000     1.007825032230
         H           -1.034366000000    -1.621705000000     2.007902000000     1.007825032230
         O            2.505713000000    -0.505921000000     1.723979000000    15.994914619570
         H            1.700403000000    -0.507406000000     1.113190000000     1.007825032230
         H            2.107247000000    -0.320223000000     2.595222000000     1.007825032230
         O            2.946339000000    -0.264625000000    -1.581763000000    15.994914619570
         H            3.334716000000     0.559035000000    -1.244785000000     1.007825032230
         H            2.261634000000    -0.356773000000    -0.924585000000     1.007825032230

  Charge       = 0
  Multiplicity = 1
  Basis Set: AUG-CC-PVTZ
    Blend: AUG-CC-PVTZ
  Basis Set: (AUG-CC-PVTZ AUX)
    Blend: AUG-CC-PVTZ-JKFIT

    Orbital Energies [Eh]
    ---------------------

    Doubly Occupied:

       1A    -20.611618     2A    -20.603491     3A    -20.590098
       4A    -20.576186     5A    -20.550459     6A     -1.387713
       7A     -1.374863     8A     -1.362790     9A     -1.361363
      10A     -1.328301    11A     -0.745608    12A     -0.734916
      13A     -0.726276    14A     -0.704781    15A     -0.704400
      16A     -0.624336    17A     -0.617741    18A     -0.602393
      19A     -0.599623    20A     -0.572166    21A     -0.544537
      22A     -0.533570    23A     -0.527494    24A     -0.516606
      25A     -0.492331

  @DF-RHF Final Energy:  -380.28147044725506

   => Energetics <=

    Nuclear Repulsion Energy =            158.7712036963114599
    One-Electron Energy =                -840.1180225818162626
    Two-Electron Energy =                 301.0653484382497709
    Total Energy =                       -380.2814704472550602
 Dipole X            :         -7.1617924            7.5193393            0.3575470
 Dipole Y            :        -35.9837805           36.4787421            0.4949616
 Dipole Z            :        -32.3474258           35.0078492            2.6604234
 Magnitude           :                                                    2.7295933

    SAPT Results
  --------------------------------------------------------------------------------------------------------
    Electrostatics               -102.55489671 [mEh]     -64.35416927 [kcal/mol]    -269.25784421 [kJ/mol]
      Elst10,r                   -101.05619830 [mEh]     -63.41372182 [kcal/mol]    -265.32301208 [kJ/mol]
      Elst12,r                     -1.49869841 [mEh]      -0.94044745 [kcal/mol]      -3.93483213 [kJ/mol]

    Exchange                       99.07967598 [mEh]      62.17343534 [kcal/mol]     260.13365345 [kJ/mol]
      Exch10                       88.81711535 [mEh]      55.73358132 [kcal/mol]     233.18930423 [kJ/mol]
      Exch10(S^2)                  87.11159432 [mEh]      54.66335071 [kcal/mol]     228.71145937 [kJ/mol]
      Exch11(S^2)                   3.99562941 [mEh]       2.50729531 [kcal/mol]      10.49052356 [kJ/mol]
      Exch12(S^2)                   6.26693122 [mEh]       3.93255871 [kcal/mol]      16.45382566 [kJ/mol]

    Induction                     -42.12327635 [mEh]     -26.43275498 [kcal/mol]    -110.59464683 [kJ/mol]
      Ind20,r                     -77.56882277 [mEh]     -48.67517116 [kcal/mol]    -203.65691613 [kJ/mol]
      Ind22                       -10.19745548 [mEh]      -6.39899992 [kcal/mol]     -26.77341568 [kJ/mol]
      Exch-Ind20,r                 49.36102866 [mEh]      30.97451312 [kcal/mol]     129.59736290 [kJ/mol]
      Exch-Ind22                    6.48916503 [mEh]       4.07201253 [kcal/mol]      17.03730044 [kJ/mol]
      delta HF,r (2)              -10.20719180 [mEh]      -6.40510955 [kcal/mol]     -26.79897837 [kJ/mol]

    Dispersion                    -31.80465448 [mEh]     -19.95772200 [kcal/mol]     -83.50310884 [kJ/mol]
      Disp20                      -36.86756980 [mEh]     -23.13474932 [kcal/mol]     -96.79579116 [kJ/mol]
      Disp21                        2.79892604 [mEh]       1.75635261 [kcal/mol]       7.34857930 [kJ/mol]
      Disp22 (SDQ)                  0.03524640 [mEh]       0.02211745 [kcal/mol]       0.09253940 [kJ/mol]
      Disp22 (T)                   -5.78555876 [mEh]      -3.63049293 [kcal/mol]     -15.18998244 [kJ/mol]
      Est. Disp22 (T)              -6.59565894 [mEh]      -4.13883847 [kcal/mol]     -17.31690015 [kJ/mol]
      Exch-Disp20                   8.82440181 [mEh]       5.53739574 [kcal/mol]      23.16846377 [kJ/mol]

  Total HF                        -50.65406885 [mEh]     -31.78590809 [kcal/mol]    -132.99223945 [kJ/mol]
  Total SAPT0                     -78.69723683 [mEh]     -49.38326167 [kcal/mol]    -206.61956684 [kJ/mol]
  Total SAPT2                     -73.64166506 [mEh]     -46.21084249 [kcal/mol]    -193.34616498 [kJ/mol]
  Total SAPT2+                    -77.40315156 [mEh]     -48.57121090 [kcal/mol]    -203.22194643 [kJ/mol]

  Special recipe for scaled SAPT0 (see Manual):
    Electrostatics sSAPT0        -101.05619830 [mEh]     -63.41372182 [kcal/mol]    -265.32301208 [kJ/mol]
    Exchange sSAPT0                88.81711535 [mEh]      55.73358132 [kcal/mol]     233.18930423 [kJ/mol]
    Induction sSAPT0              -35.45859608 [mEh]     -22.25060497 [kcal/mol]     -93.09653119 [kJ/mol]
    Dispersion sSAPT0             -27.51464634 [mEh]     -17.26570125 [kcal/mol]     -72.23969403 [kJ/mol]
  Total sSAPT0                    -75.21232538 [mEh]     -47.19644672 [kcal/mol]    -197.46993307 [kJ/mol]
  --------------------------------------------------------------------------------------------------------

*** Psi4 exiting successfully. Buy a developer a beer!
