                               Psi4 1.8.2 release

  ==> Input File <==

--------------------------------------------------------------------------
MEMORY 60 GB

molecule dimer {
-1 1
Br     0.000000     0.000000     0.000000
--
0 1
O     -0.182304     3.494170    -0.605864
H      0.120242     3.914423     0.257357
H      0.132300     2.594793    -0.587648
O     -2.270989    -2.543796    -0.135242
H     -1.629269    -1.818732    -0.214141
H     -2.769596    -2.373792     0.665191
O     -2.622852     0.829441    -1.960167
H     -1.727443     0.478275    -1.721753
H     -2.825376     0.371547    -2.777806
O     -0.227539    -1.062518     3.239792
H     -0.110948    -1.919017     2.769254
H     -0.127755    -0.388440     2.591113
O      3.140969     1.639494    -0.214309
H      3.024015     2.037304    -1.045371
H      2.229103     1.295954     0.003369

units ang
no_reorient
no_com
symmetry c1
}

set {
basis        aug-cc-pVTZ
scf_type     df
}

energy("sapt2+")
--------------------------------------------------------------------------

  //              Dimer HF             //
    Molecular point group: c1
  Charge       = -1
  Multiplicity = 1
  Basis Set: AUG-CC-PVTZ
    Blend: AUG-CC-PVTZ
  Basis Set: (AUG-CC-PVTZ AUX)
    Blend: AUG-CC-PVTZ-JKFIT
  @DF-RHF Final Energy: -2952.88114292349610
    Total Energy =                      -2952.8811429234960997
 Dipole X            :         40.1850341          -39.6586372            0.5263970
 Dipole Y            :        -44.0328088           43.5518434           -0.4809654
 Dipole Z            :         -5.2335233            4.7871393           -0.4463840
 Magnitude           :                                                    0.8412373
  //            Monomer A HF           //
    Molecular point group: c1
  Multiplicity = 1
  Basis Set: AUG-CC-PVTZ
    Blend: AUG-CC-PVTZ
  Basis Set: (AUG-CC-PVTZ AUX)
    Blend: AUG-CC-PVTZ-JKFIT
  @DF-RHF Final Energy: -2572.53372549361848
    Total Energy =                      -2572.5337254936184763
  //            Monomer B HF           //
    Molecular point group: c1

    Geometry (in Angstrom), charge = 0, multiplicity = 1:

       Center              X                  Y                   Z               Mass
    ------------   -----------------  -----------------  -----------------  -----------------
      Gh(BR)          0.000000000000     0.000000000000     0.000000000000    78.918337600000
         O           -0.182304000000     3.494170000000    -0.605864000000    15.994914619570
         H            0.120242000000     3.914423000000     0.257357000000     1.007825032230
         H            0.132300000000     2.594793000000    -0.587648000000     1.007825032230
         O           -2.270989000000    -2.543796000000    -0.135242000000    15.994914619570
         H           -1.629269000000    -1.818732000000    -0.214141000000     1.007825032230
         H           -2.769596000000    -2.373792000000     0.665191000000     1.007825032230
         O           -2.622852000000     0.829441000000    -1.960167000000    15.994914619570
         H           -1.727443000000     0.478275000000    -1.721753000000     1.007825032230
         H           -2.825376000000     0.371547000000    -2.777806000000     1.007825032230
         O           -0.227539000000    -1.062518000000     3.239792000000    15.994914619570
         H           -0.110948000000    -1.919017000000     2.769254000000     1.007825032230
         H           -0.127755000000    -0.388440000000     2.591113000000     1.007825032230
         O            3.140969000000     1.639494000000    -0.214309000000    15.994914619570
         H            3.024015000000     2.037304000000    -1.045371000000     1.007825032230
         H            2.229103000000     1.295954000000     0.003369000000     1.007825032230

  Charge       = 0
  Multiplicity = 1
  Basis Set: AUG-CC-PVTZ
    Blend: AUG-CC-PVTZ
  Basis Set: (AUG-CC-PVTZ AUX)
    Blend: AUG-CC-PVTZ-JKFIT

    Orbital Energies [Eh]
    ---------------------

    Doubly Occupied:

       1A    -20.589035     2A    -20.585414     3A    -20.583046
       4A    -20.581683     5A    -20.581273     6A     -1.372566
       7A     -1.365906     8A     -1.362448     9A     -1.357016
      10A     -1.356038    11A     -0.734191    12A     -0.732410
      13A     -0.731282    14A     -0.724524    15A     -0.716055
      16A     -0.606293    17A     -0.596408    18A     -0.593969
      19A     -0.592839    20A     -0.590393    21A     -0.530645
      22A     -0.525968    23A     -0.524213    24A     -0.522159
      25A     -0.517022

  @DF-RHF Final Energy:  -380.28478433716271

   => Energetics <=

    Nuclear Repulsion Energy =            153.4803683356773547
    One-Electron Energy =                -829.5847037813773568
    Two-Electron Energy =                 295.8195511085373255
    Total Energy =                       -380.2847843371627050
 Dipole X            :         40.0180661          -39.6586372            0.3594289
 Dipole Y            :        -43.8235023           43.5518434           -0.2716589
 Dipole Z            :         -5.2778215            4.7871393           -0.4906823
 Magnitude           :                                                    0.6661507

    SAPT Results
  --------------------------------------------------------------------------------------------------------
    Electrostatics                -91.32488201 [mEh]     -57.30722865 [kcal/mol]    -239.77344468 [kJ/mol]
      Elst10,r                    -91.80993444 [mEh]     -57.61160365 [kcal/mol]    -241.04694966 [kJ/mol]
      Elst12,r                      0.48505243 [mEh]       0.30437500 [kcal/mol]       1.27350499 [kJ/mol]

    Exchange                       61.22030543 [mEh]      38.41632165 [kcal/mol]     160.73388977 [kJ/mol]
      Exch10                       53.86968878 [mEh]      33.80374006 [kcal/mol]     141.43484840 [kJ/mol]
      Exch10(S^2)                  53.32908505 [mEh]      33.46450609 [kcal/mol]     140.01549350 [kJ/mol]
      Exch11(S^2)                   2.92190814 [mEh]       1.83352504 [kcal/mol]       7.67146875 [kJ/mol]
      Exch12(S^2)                   4.42870852 [mEh]       2.77905655 [kcal/mol]      11.62757262 [kJ/mol]

    Induction                     -27.24315094 [mEh]     -17.09533531 [kcal/mol]     -71.52688295 [kJ/mol]
      Ind20,r                     -46.56631759 [mEh]     -29.22080545 [kcal/mol]    -122.25984999 [kJ/mol]
      Ind22                        -6.35551125 [mEh]      -3.98814352 [kcal/mol]     -16.68639248 [kJ/mol]
      Exch-Ind20,r                 27.88044696 [mEh]      17.49524460 [kcal/mol]      73.20010342 [kJ/mol]
      Exch-Ind22                    3.80520736 [mEh]       2.38780367 [kcal/mol]       9.99057054 [kJ/mol]
      delta HF,r (2)               -6.00697643 [mEh]      -3.76943462 [kcal/mol]     -15.77131444 [kJ/mol]

    Dispersion                    -24.59995367 [mEh]     -15.43670398 [kcal/mol]     -64.58716946 [kJ/mol]
      Disp20                      -27.38990765 [mEh]     -17.18742653 [kcal/mol]     -71.91219262 [kJ/mol]
      Disp21                        1.75957772 [mEh]       1.10415169 [kcal/mol]       4.61977068 [kJ/mol]
      Disp22 (SDQ)                 -0.06509494 [mEh]      -0.04084769 [kcal/mol]      -0.17090675 [kJ/mol]
      Disp22 (T)                   -4.36877927 [mEh]      -2.74145038 [kcal/mol]     -11.47022840 [kJ/mol]
      Est. Disp22 (T)              -5.04820573 [mEh]      -3.16779692 [kcal/mol]     -13.25406232 [kJ/mol]
      Exch-Disp20                   6.14367693 [mEh]       3.85521548 [kcal/mol]      16.13022155 [kJ/mol]

  Total HF                        -62.63309271 [mEh]     -39.30285905 [kcal/mol]    -164.44316227 [kJ/mol]
  Total SAPT0                     -83.87932343 [mEh]     -52.63507011 [kcal/mol]    -220.22513333 [kJ/mol]
  Total SAPT2                     -78.59395824 [mEh]     -49.31845338 [kcal/mol]    -206.34840892 [kJ/mol]
  Total SAPT2+                    -81.94768119 [mEh]     -51.42294630 [kcal/mol]    -215.15360731 [kJ/mol]

  Special recipe for scaled SAPT0 (see Manual):
    Electrostatics sSAPT0         -91.80993444 [mEh]     -57.61160365 [kcal/mol]    -241.04694966 [kJ/mol]
    Exchange sSAPT0                53.86968878 [mEh]      33.80374006 [kcal/mol]     141.43484840 [kJ/mol]
    Induction sSAPT0              -23.83633998 [mEh]     -14.95752916 [kcal/mol]     -62.58230200 [kJ/mol]
    Dispersion sSAPT0             -21.05749261 [mEh]     -13.21377611 [kcal/mol]     -55.28643924 [kJ/mol]
  Total sSAPT0                    -82.83407826 [mEh]     -51.97916886 [kcal/mol]    -217.48084250 [kJ/mol]
  --------------------------------------------------------------------------------------------------------

*** Psi4 exiting successfully. Buy a developer a beer!
