                               Psi4 1.8.2 release

  ==> Input File <==

--------------------------------------------------------------------------
MEMORY 60 GB

molecule dimer {
-1 1
Br     0.000000     0.000000     0.000000
--
0 1
O      0.907785    -3.270542     0.005052
H      0.638022    -2.382067     0.033667
H      1.487598    -3.318185     0.780281
O     -0.442867    -1.493360     2.705895
H     -0.557517    -2.505349     2.636657
H     -0.309218    -1.143022     1.794908
O      3.300513    -1.122755    -0.539692
H      3.130969    -1.988896    -0.865131
H      2.387446    -0.783323    -0.362168
O     -1.677447     1.488794     2.663873
H     -1.236549     1.357234     3.514456
H     -1.130855     0.928758     2.068196
O      2.470751    -0.161330     2.335308
H      2.923351    -1.018032     2.221032
H      1.582633    -0.292052     2.024141

units ang
no_reorient
no_com
symmetry c1
}

set {
basis        aug-cc-pVTZ
scf_type     df
}

energy("sapt2+")
--------------------------------------------------------------------------

  //              Dimer HF             //
    Molecular point group: c1
  Charge       = -1
  Multiplicity = 1
  Basis Set: AUG-CC-PVTZ
    Blend: AUG-CC-PVTZ
  Basis Set: (AUG-CC-PVTZ AUX)
    Blend: AUG-CC-PVTZ-JKFIT
  @DF-RHF Final Energy: -2952.86863371830987
    Total Energy =                      -2952.8686337183098658
 Dipole X            :        -86.3443612           85.7666564           -0.5777048
 Dipole Y            :         89.3308788          -89.9858819           -0.6550032
 Dipole Z            :       -135.7039401          134.5665036           -1.1374365
 Magnitude           :                                                    1.4340620
  //            Monomer A HF           //
    Molecular point group: c1
  Multiplicity = 1
  Basis Set: AUG-CC-PVTZ
    Blend: AUG-CC-PVTZ
  Basis Set: (AUG-CC-PVTZ AUX)
    Blend: AUG-CC-PVTZ-JKFIT
  @DF-RHF Final Energy: -2572.53373207722461
    Total Energy =                      -2572.5337320772250678
  //            Monomer B HF           //
    Molecular point group: c1

    Geometry (in Angstrom), charge = 0, multiplicity = 1:

       Center              X                  Y                   Z               Mass
    ------------   -----------------  -----------------  -----------------  -----------------
      Gh(BR)          0.000000000000     0.000000000000     0.000000000000    78.918337600000
         O            0.907785000000    -3.270542000000     0.005052000000    15.994914619570
         H            0.638022000000    -2.382067000000     0.033667000000     1.007825032230
         H            1.487598000000    -3.318185000000     0.780281000000     1.007825032230
         O           -0.442867000000    -1.493360000000     2.705895000000    15.994914619570
         H           -0.557517000000    -2.505349000000     2.636657000000     1.007825032230
         H           -0.309218000000    -1.143022000000     1.794908000000     1.007825032230
         O            3.300513000000    -1.122755000000    -0.539692000000    15.994914619570
         H            3.130969000000    -1.988896000000    -0.865131000000     1.007825032230
         H            2.387446000000    -0.783323000000    -0.362168000000     1.007825032230
         O           -1.677447000000     1.488794000000     2.663873000000    15.994914619570
         H           -1.236549000000     1.357234000000     3.514456000000     1.007825032230
         H           -1.130855000000     0.928758000000     2.068196000000     1.007825032230
         O            2.470751000000    -0.161330000000     2.335308000000    15.994914619570
         H            2.923351000000    -1.018032000000     2.221032000000     1.007825032230
         H            1.582633000000    -0.292052000000     2.024141000000     1.007825032230

  Charge       = 0
  Multiplicity = 1
  Basis Set: AUG-CC-PVTZ
    Blend: AUG-CC-PVTZ
  Basis Set: (AUG-CC-PVTZ AUX)
    Blend: AUG-CC-PVTZ-JKFIT

    Orbital Energies [Eh]
    ---------------------

    Doubly Occupied:

       1A    -20.616554     2A    -20.611464     3A    -20.583826
       4A    -20.577104     5A    -20.570434     6A     -1.406514
       7A     -1.375338     8A     -1.367461     9A     -1.359896
      10A     -1.345434    11A     -0.761752    12A     -0.749457
      13A     -0.725981    14A     -0.724195    15A     -0.701646
      16A     -0.639461    17A     -0.614537    18A     -0.604035
      19A     -0.593184    20A     -0.585324    21A     -0.555725
      22A     -0.548717    23A     -0.530299    24A     -0.512519
      25A     -0.507978

  @DF-RHF Final Energy:  -380.27514205527967

   => Energetics <=

    Nuclear Repulsion Energy =            182.3642983856432807
    One-Electron Energy =                -886.9412064943476253
    Two-Electron Energy =                 324.3017660534247284
    Total Energy =                       -380.2751420552796731
 Dipole X            :        -85.8934153           85.7666564           -0.1267589
 Dipole Y            :         88.5182684          -89.9858819           -1.4676135
 Dipole Z            :       -134.7695700          134.5665036           -0.2030665
 Magnitude           :                                                    1.4870081

    SAPT Results
  --------------------------------------------------------------------------------------------------------
    Electrostatics                -97.28268739 [mEh]     -61.04580797 [kcal/mol]    -255.41566056 [kJ/mol]
      Elst10,r                    -96.76322406 [mEh]     -60.71983981 [kcal/mol]    -254.05180976 [kJ/mol]
      Elst12,r                     -0.51946334 [mEh]      -0.32596816 [kcal/mol]      -1.36385080 [kJ/mol]

    Exchange                       84.81644705 [mEh]      53.22312406 [kcal/mol]     222.68555106 [kJ/mol]
      Exch10                       76.16489276 [mEh]      47.79419178 [kcal/mol]     199.97089840 [kJ/mol]
      Exch10(S^2)                  74.56774888 [mEh]      46.79196886 [kcal/mol]     195.77759770 [kJ/mol]
      Exch11(S^2)                   3.12148448 [mEh]       1.95876109 [kcal/mol]       8.19545638 [kJ/mol]
      Exch12(S^2)                   5.53006981 [mEh]       3.47017119 [kcal/mol]      14.51919627 [kJ/mol]

    Induction                     -42.49550182 [mEh]     -26.66632998 [kcal/mol]    -111.57192464 [kJ/mol]
      Ind20,r                     -69.70082416 [mEh]     -43.73792749 [kcal/mol]    -182.99948861 [kJ/mol]
      Ind22                        -8.40930657 [mEh]      -5.27691954 [kcal/mol]     -22.07863136 [kJ/mol]
      Exch-Ind20,r                 42.06480173 [mEh]      26.39606160 [kcal/mol]     110.44112173 [kJ/mol]
      Exch-Ind22                    5.07505927 [mEh]       3.18464777 [kcal/mol]      13.32456627 [kJ/mol]
      delta HF,r (2)              -11.52523209 [mEh]      -7.23219232 [kcal/mol]     -30.25949267 [kJ/mol]

    Dispersion                    -28.68424659 [mEh]     -17.99963649 [kcal/mol]     -75.31047906 [kJ/mol]
      Disp20                      -33.17009885 [mEh]     -20.81455127 [kcal/mol]     -87.08808253 [kJ/mol]
      Disp21                        2.91407282 [mEh]       1.82860830 [kcal/mol]       7.65089714 [kJ/mol]
      Disp22 (SDQ)                 -0.11706319 [mEh]      -0.07345826 [kcal/mol]      -0.30734937 [kJ/mol]
      Disp22 (T)                   -5.27628748 [mEh]      -3.31092038 [kcal/mol]     -13.85289086 [kJ/mol]
      Est. Disp22 (T)              -6.02561905 [mEh]      -3.78113304 [kcal/mol]     -15.82026063 [kJ/mol]
      Exch-Disp20                   7.71446167 [mEh]       4.84089778 [kcal/mol]      20.25431633 [kJ/mol]

  Total HF                        -59.75958581 [mEh]     -37.49970624 [kcal/mol]    -156.89877092 [kJ/mol]
  Total SAPT0                     -85.21522298 [mEh]     -53.47335973 [kcal/mol]    -223.73253711 [kJ/mol]
  Total SAPT2                     -80.41737933 [mEh]     -50.46266739 [kcal/mol]    -211.13580034 [kJ/mol]
  Total SAPT2+                    -83.64598875 [mEh]     -52.48865038 [kcal/mol]    -219.61251320 [kJ/mol]

  Special recipe for scaled SAPT0 (see Manual):
    Electrostatics sSAPT0         -96.76322406 [mEh]     -60.71983981 [kcal/mol]    -254.05180976 [kJ/mol]
    Exchange sSAPT0                76.16489276 [mEh]      47.79419178 [kcal/mol]     199.97089840 [kJ/mol]
    Induction sSAPT0              -36.40002867 [mEh]     -22.84136284 [kcal/mol]     -95.56826210 [kJ/mol]
    Dispersion sSAPT0             -24.94924299 [mEh]     -15.65588634 [kcal/mol]     -65.50422845 [kJ/mol]
  Total sSAPT0                    -81.94760295 [mEh]     -51.42289721 [kcal/mol]    -215.15340191 [kJ/mol]
  --------------------------------------------------------------------------------------------------------

*** Psi4 exiting successfully. Buy a developer a beer!
