                               Psi4 1.8.2 release

  ==> Input File <==

--------------------------------------------------------------------------
MEMORY 60 GB

molecule dimer {
-1 1
Br     0.000000     0.000000     0.000000
--
0 1
O     -1.259613    -1.972372    -2.351696
H     -0.860891    -1.435419    -1.661193
H     -2.112677    -2.309575    -2.092339
O     -2.845407     1.529579    -0.341206
H     -3.404442     0.725851    -0.231895
H     -1.918137     1.227655    -0.418924
O      1.203798     0.989340    -2.982723
H      1.383848     1.404532    -2.151666
H      0.917733     0.079877    -2.748949
O     -1.942333    -2.300435     1.090951
H     -1.277267    -1.678503     0.760063
H     -1.677310    -3.142909     0.788314
O      2.995159    -1.396829    -0.963849
H      2.160999    -1.154144    -0.534338
H      3.403321    -0.551585    -1.226511

units ang
no_reorient
no_com
symmetry c1
}

set {
basis        aug-cc-pVTZ
scf_type     df
}

energy("sapt2+")
--------------------------------------------------------------------------

  //              Dimer HF             //
    Molecular point group: c1
  Charge       = -1
  Multiplicity = 1
  Basis Set: AUG-CC-PVTZ
    Blend: AUG-CC-PVTZ
  Basis Set: (AUG-CC-PVTZ AUX)
    Blend: AUG-CC-PVTZ-JKFIT
  @DF-RHF Final Energy: -2952.88323221935070
    Total Energy =                      -2952.8832322193511573
 Dipole X            :         34.8075476          -34.3400861            0.4674614
 Dipole Y            :         60.6329867          -60.5467419            0.0862448
 Dipole Z            :        103.3745334         -101.8668622            1.5076712
 Magnitude           :                                                    1.5808324
  //            Monomer A HF           //
    Molecular point group: c1
  Multiplicity = 1
  Basis Set: AUG-CC-PVTZ
    Blend: AUG-CC-PVTZ
  Basis Set: (AUG-CC-PVTZ AUX)
    Blend: AUG-CC-PVTZ-JKFIT
  @DF-RHF Final Energy: -2572.53373364331947
    Total Energy =                      -2572.5337336433199198
  //            Monomer B HF           //
    Molecular point group: c1

    Geometry (in Angstrom), charge = 0, multiplicity = 1:

       Center              X                  Y                   Z               Mass
    ------------   -----------------  -----------------  -----------------  -----------------
      Gh(BR)          0.000000000000     0.000000000000     0.000000000000    78.918337600000
         O           -1.259613000000    -1.972372000000    -2.351696000000    15.994914619570
         H           -0.860891000000    -1.435419000000    -1.661193000000     1.007825032230
         H           -2.112677000000    -2.309575000000    -2.092339000000     1.007825032230
         O           -2.845407000000     1.529579000000    -0.341206000000    15.994914619570
         H           -3.404442000000     0.725851000000    -0.231895000000     1.007825032230
         H           -1.918137000000     1.227655000000    -0.418924000000     1.007825032230
         O            1.203798000000     0.989340000000    -2.982723000000    15.994914619570
         H            1.383848000000     1.404532000000    -2.151666000000     1.007825032230
         H            0.917733000000     0.079877000000    -2.748949000000     1.007825032230
         O           -1.942333000000    -2.300435000000     1.090951000000    15.994914619570
         H           -1.277267000000    -1.678503000000     0.760063000000     1.007825032230
         H           -1.677310000000    -3.142909000000     0.788314000000     1.007825032230
         O            2.995159000000    -1.396829000000    -0.963849000000    15.994914619570
         H            2.160999000000    -1.154144000000    -0.534338000000     1.007825032230
         H            3.403321000000    -0.551585000000    -1.226511000000     1.007825032230

  Charge       = 0
  Multiplicity = 1
  Basis Set: AUG-CC-PVTZ
    Blend: AUG-CC-PVTZ
  Basis Set: (AUG-CC-PVTZ AUX)
    Blend: AUG-CC-PVTZ-JKFIT

    Orbital Energies [Eh]
    ---------------------

    Doubly Occupied:

       1A    -20.595918     2A    -20.591002     3A    -20.589987
       4A    -20.583770     5A    -20.581726     6A     -1.386736
       7A     -1.375806     8A     -1.367105     9A     -1.365154
      10A     -1.350883    11A     -0.760777    12A     -0.753861
      13A     -0.731830    14A     -0.728967    15A     -0.720737
      16A     -0.614699    17A     -0.603776    18A     -0.596998
      19A     -0.595004    20A     -0.585808    21A     -0.541176
      22A     -0.534538    23A     -0.531026    24A     -0.522384
      25A     -0.518459

  @DF-RHF Final Energy:  -380.28819507438561

   => Energetics <=

    Nuclear Repulsion Energy =            165.9995441160476730
    One-Electron Energy =                -854.3192200685241460
    Two-Electron Energy =                 308.0314808780908606
    Total Energy =                       -380.2881950743856123
 Dipole X            :         34.4962693          -34.3400861            0.1561831
 Dipole Y            :         60.1133694          -60.5467419           -0.4333725
 Dipole Z            :        102.8453906         -101.8668622            0.9785283
 Magnitude           :                                                    1.0815372

    SAPT Results
  --------------------------------------------------------------------------------------------------------
    Electrostatics               -111.49983757 [mEh]     -69.96720440 [kcal/mol]    -292.74278320 [kJ/mol]
      Elst10,r                   -111.18332480 [mEh]     -69.76858964 [kcal/mol]    -291.91177905 [kJ/mol]
      Elst12,r                     -0.31651276 [mEh]      -0.19861476 [kcal/mol]      -0.83100414 [kJ/mol]

    Exchange                       93.80569725 [mEh]      58.86396372 [kcal/mol]     246.28682420 [kJ/mol]
      Exch10                       83.38253933 [mEh]      52.32333338 [kcal/mol]     218.92082686 [kJ/mol]
      Exch10(S^2)                  82.30545293 [mEh]      51.64745146 [kcal/mol]     216.09293690 [kJ/mol]
      Exch11(S^2)                   4.00821317 [mEh]       2.51519174 [kcal/mol]      10.52356222 [kJ/mol]
      Exch12(S^2)                   6.41494475 [mEh]       4.02543861 [kcal/mol]      16.84243512 [kJ/mol]

    Induction                     -37.07926356 [mEh]     -23.26758916 [kcal/mol]     -97.35159306 [kJ/mol]
      Ind20,r                     -69.68581136 [mEh]     -43.72850682 [kcal/mol]    -182.96007252 [kJ/mol]
      Ind22                       -10.17784890 [mEh]      -6.38669661 [kcal/mol]     -26.72193862 [kJ/mol]
      Exch-Ind20,r                 45.19786614 [mEh]      28.36208920 [kcal/mol]     118.66698121 [kJ/mol]
      Exch-Ind22                    6.60130152 [mEh]       4.14237924 [kcal/mol]      17.33171475 [kJ/mol]
      delta HF,r (2)               -9.01477096 [mEh]      -5.65685418 [kcal/mol]     -23.66827789 [kJ/mol]

    Dispersion                    -31.68600540 [mEh]     -19.88326858 [kcal/mol]     -83.19159572 [kJ/mol]
      Disp20                      -36.37098683 [mEh]     -22.82313881 [kcal/mol]     -95.49201276 [kJ/mol]
      Disp21                        2.62371676 [mEh]       1.64640713 [kcal/mol]       6.88856741 [kJ/mol]
      Disp22 (SDQ)                 -0.10558380 [mEh]      -0.06625484 [kcal/mol]      -0.27721023 [kJ/mol]
      Disp22 (T)                   -5.76630550 [mEh]      -3.61841133 [kcal/mol]     -15.13943302 [kJ/mol]
      Est. Disp22 (T)              -6.57087890 [mEh]      -4.12328876 [kcal/mol]     -17.25184017 [kJ/mol]
      Exch-Disp20                   8.73772736 [mEh]       5.48300670 [kcal/mol]      22.94090003 [kJ/mol]

  Total HF                        -61.30350165 [mEh]     -38.46852806 [kcal/mol]    -160.95232140 [kJ/mol]
  Total SAPT0                     -88.93676111 [mEh]     -55.80866016 [kcal/mol]    -233.50343413 [kJ/mol]
  Total SAPT2                     -82.40666334 [mEh]     -51.71096195 [kcal/mol]    -216.35866479 [kJ/mol]
  Total SAPT2+                    -86.45940927 [mEh]     -54.25409842 [kcal/mol]    -226.99914778 [kJ/mol]

  Special recipe for scaled SAPT0 (see Manual):
    Electrostatics sSAPT0        -111.18332480 [mEh]     -69.76858964 [kcal/mol]    -291.91177905 [kJ/mol]
    Exchange sSAPT0                83.38253933 [mEh]      52.32333338 [kcal/mol]     218.92082686 [kJ/mol]
    Induction sSAPT0              -31.70495458 [mEh]     -19.89515937 [kcal/mol]     -83.24134679 [kJ/mol]
    Dispersion sSAPT0             -27.28571318 [mEh]     -17.12204352 [kcal/mol]     -71.63863007 [kJ/mol]
  Total sSAPT0                    -86.79145323 [mEh]     -54.46245914 [kcal/mol]    -227.87092906 [kJ/mol]
  --------------------------------------------------------------------------------------------------------

*** Psi4 exiting successfully. Buy a developer a beer!
