                               Psi4 1.8.2 release

  ==> Input File <==

--------------------------------------------------------------------------
MEMORY 60 GB

molecule dimer {
-1 1
Br     0.000000     0.000000     0.000000
--
0 1
O     -2.719380    -0.917874     1.513340
H     -2.094607    -0.347929     1.035762
H     -3.561100    -0.822273     1.115577
O     -2.060809     2.593717    -0.859092
H     -1.688050     3.070376    -1.592003
H     -1.437597     1.870275    -0.673543
O     -0.594218    -3.396631     0.803846
H     -0.374269    -2.975147     1.697640
H     -0.649522    -2.561829     0.293830

units ang
no_reorient
no_com
symmetry c1
}

set {
basis        aug-cc-pVTZ
scf_type     df
}

energy("sapt2+")
--------------------------------------------------------------------------

  //              Dimer HF             //
    Molecular point group: c1
  Charge       = -1
  Multiplicity = 1
  Basis Set: AUG-CC-PVTZ
    Blend: AUG-CC-PVTZ
  Basis Set: (AUG-CC-PVTZ AUX)
    Blend: AUG-CC-PVTZ-JKFIT
  @DF-RHF Final Energy: -2800.74453521993291
    Total Energy =                      -2800.7445352199329136
 Dipole X            :        100.9844883          -99.7782972            1.2061911
 Dipole Y            :         30.4942048          -29.3527965            1.1414082
 Dipole Z            :        -26.3826582           25.5906995           -0.7919587
 Magnitude           :                                                    1.8398120
  //            Monomer A HF           //
    Molecular point group: c1
  Multiplicity = 1
  Basis Set: AUG-CC-PVTZ
    Blend: AUG-CC-PVTZ
  Basis Set: (AUG-CC-PVTZ AUX)
    Blend: AUG-CC-PVTZ-JKFIT
  @DF-RHF Final Energy: -2572.53370658315089
    Total Energy =                      -2572.5337065831508880
  //            Monomer B HF           //
    Molecular point group: c1

    Geometry (in Angstrom), charge = 0, multiplicity = 1:

       Center              X                  Y                   Z               Mass
    ------------   -----------------  -----------------  -----------------  -----------------
      Gh(BR)          0.000000000000     0.000000000000     0.000000000000    78.918337600000
         O           -2.719380000000    -0.917874000000     1.513340000000    15.994914619570
         H           -2.094607000000    -0.347929000000     1.035762000000     1.007825032230
         H           -3.561100000000    -0.822273000000     1.115577000000     1.007825032230
         O           -2.060809000000     2.593717000000    -0.859092000000    15.994914619570
         H           -1.688050000000     3.070376000000    -1.592003000000     1.007825032230
         H           -1.437597000000     1.870275000000    -0.673543000000     1.007825032230
         O           -0.594218000000    -3.396631000000     0.803846000000    15.994914619570
         H           -0.374269000000    -2.975147000000     1.697640000000     1.007825032230
         H           -0.649522000000    -2.561829000000     0.293830000000     1.007825032230

  Charge       = 0
  Multiplicity = 1
  Basis Set: AUG-CC-PVTZ
    Blend: AUG-CC-PVTZ
  Basis Set: (AUG-CC-PVTZ AUX)
    Blend: AUG-CC-PVTZ-JKFIT

    Orbital Energies [Eh]
    ---------------------

    Doubly Occupied:

       1A    -20.583095     2A    -20.574241     3A    -20.566748
       4A     -1.366321     5A     -1.363057     6A     -1.329811
       7A     -0.737493     8A     -0.733190     9A     -0.672738
      10A     -0.597368    11A     -0.589672    12A     -0.581944
      13A     -0.525176    14A     -0.520969    15A     -0.497430

  @DF-RHF Final Energy:  -228.17131596874404

   => Energetics <=

    Nuclear Repulsion Energy =             64.2307418755286221
    One-Electron Energy =                -442.3256049378301213
    Two-Electron Energy =                 149.9235470935574597
    Total Energy =                       -228.1713159687440395
 Dipole X            :        100.3042871          -99.7782972            0.5259899
 Dipole Y            :         30.4712342          -29.3527965            1.1184377
 Dipole Z            :        -26.2870008           25.5906995           -0.6963013
 Magnitude           :                                                    1.4185922

    SAPT Results
  --------------------------------------------------------------------------------------------------------
    Electrostatics                -60.49409664 [mEh]     -37.96061875 [kcal/mol]    -158.82722885 [kJ/mol]
      Elst10,r                    -60.58888075 [mEh]     -38.02009667 [kcal/mol]    -159.07608448 [kJ/mol]
      Elst12,r                      0.09478411 [mEh]       0.05947792 [kcal/mol]       0.24885563 [kJ/mol]

    Exchange                       45.07828481 [mEh]      28.28705078 [kcal/mol]     118.35302046 [kJ/mol]
      Exch10                       40.31035682 [mEh]      25.29513080 [kcal/mol]     105.83482726 [kJ/mol]
      Exch10(S^2)                  39.84040183 [mEh]      25.00022959 [kcal/mol]     104.60096059 [kJ/mol]
      Exch11(S^2)                   1.72604218 [mEh]       1.08310782 [kcal/mol]       4.53172312 [kJ/mol]
      Exch12(S^2)                   3.04188580 [mEh]       1.90881216 [kcal/mol]       7.98647008 [kJ/mol]

    Induction                     -20.88576857 [mEh]     -13.10601764 [kcal/mol]     -54.83557782 [kJ/mol]
      Ind20,r                     -35.43482455 [mEh]     -22.23568811 [kcal/mol]     -93.03411904 [kJ/mol]
      Ind22                        -4.45139637 [mEh]      -2.79329339 [kcal/mol]     -11.68713955 [kJ/mol]
      Exch-Ind20,r                 22.28725966 [mEh]      13.98546658 [kcal/mol]      58.51519218 [kJ/mol]
      Exch-Ind22                    2.79977192 [mEh]       1.75688340 [kcal/mol]       7.35080016 [kJ/mol]
      delta HF,r (2)               -6.08657923 [mEh]      -3.81938613 [kcal/mol]     -15.98031157 [kJ/mol]

    Dispersion                    -16.21537953 [mEh]     -10.17530427 [kcal/mol]     -42.57347308 [kJ/mol]
      Disp20                      -18.43581212 [mEh]     -11.56864676 [kcal/mol]     -48.40321806 [kJ/mol]
      Disp21                        1.23866148 [mEh]       0.77727181 [kcal/mol]       3.25210527 [kJ/mol]
      Disp22 (SDQ)                 -0.00871880 [mEh]      -0.00547113 [kcal/mol]      -0.02289120 [kJ/mol]
      Disp22 (T)                   -2.89108714 [mEh]      -1.81418457 [kcal/mol]      -7.59054824 [kJ/mol]
      Est. Disp22 (T)              -3.31163411 [mEh]      -2.07808178 [kcal/mol]      -8.69469415 [kJ/mol]
      Exch-Disp20                   4.30212402 [mEh]       2.69962358 [kcal/mol]      11.29522505 [kJ/mol]

  Total HF                        -39.51266804 [mEh]     -24.79457353 [kcal/mol]    -103.74049564 [kJ/mol]
  Total SAPT0                     -53.64635614 [mEh]     -33.66359671 [kcal/mol]    -140.84848865 [kJ/mol]
  Total SAPT2                     -50.43526850 [mEh]     -31.64860880 [kcal/mol]    -132.41777921 [kJ/mol]
  Total SAPT2+                    -52.51695992 [mEh]     -32.95488989 [kcal/mol]    -137.88325929 [kJ/mol]

  Special recipe for scaled SAPT0 (see Manual):
    Electrostatics sSAPT0         -60.58888075 [mEh]     -38.02009667 [kcal/mol]    -159.07608448 [kJ/mol]
    Exchange sSAPT0                40.31035682 [mEh]      25.29513080 [kcal/mol]     105.83482726 [kJ/mol]
    Induction sSAPT0              -18.43610656 [mEh]     -11.56883153 [kcal/mol]     -48.40399111 [kJ/mol]
    Dispersion sSAPT0             -13.97964240 [mEh]      -8.77235805 [kcal/mol]     -36.70354607 [kJ/mol]
  Total sSAPT0                    -52.69427289 [mEh]     -33.06615545 [kcal/mol]    -138.34879440 [kJ/mol]
  --------------------------------------------------------------------------------------------------------

*** Psi4 exiting successfully. Buy a developer a beer!
