                               Psi4 1.8.2 release

  ==> Input File <==

--------------------------------------------------------------------------
MEMORY 60 GB

molecule dimer {
-1 1
Br     0.000000     0.000000     0.000000
--
0 1
O     -3.013040     1.056931    -1.652607
H     -3.813809     1.223376    -2.275182
H     -2.526972     0.362284    -2.116240
O      1.719771     0.511071     2.753016
H      1.308822     0.434263     1.867281
H      1.064406     1.091765     3.184491
O      2.086628    -1.623677    -2.132399
H      1.634885    -1.468970    -1.284862
H      2.494299    -0.787280    -2.350925
O      1.986251    -2.482713     1.611018
H      2.888043    -2.189647     1.545517
H      1.404825    -1.913044     1.045753
O     -1.890204    -2.588045    -0.295930
H     -1.108235    -1.992414    -0.188325
H     -2.004398    -3.102901     0.508548

units ang
no_reorient
no_com
symmetry c1
}

set {
basis        aug-cc-pVTZ
scf_type     df
}

energy("sapt2+")
--------------------------------------------------------------------------

  //              Dimer HF             //
    Molecular point group: c1
  Charge       = -1
  Multiplicity = 1
  Basis Set: AUG-CC-PVTZ
    Blend: AUG-CC-PVTZ
  Basis Set: (AUG-CC-PVTZ AUX)
    Blend: AUG-CC-PVTZ-JKFIT
  @DF-RHF Final Energy: -2952.85921066743458
    Total Energy =                      -2952.8592106674350362
 Dipole X            :        -16.6377890           15.9816293           -0.6561597
 Dipole Y            :         95.1482854          -93.2656037            1.8826817
 Dipole Z            :         -4.7213681            4.1589848           -0.5623832
 Magnitude           :                                                    2.0715480
  //            Monomer A HF           //
    Molecular point group: c1
  Multiplicity = 1
  Basis Set: AUG-CC-PVTZ
    Blend: AUG-CC-PVTZ
  Basis Set: (AUG-CC-PVTZ AUX)
    Blend: AUG-CC-PVTZ-JKFIT
  @DF-RHF Final Energy: -2572.53372580337600
    Total Energy =                      -2572.5337258033760008
  //            Monomer B HF           //
    Molecular point group: c1

    Geometry (in Angstrom), charge = 0, multiplicity = 1:

       Center              X                  Y                   Z               Mass
    ------------   -----------------  -----------------  -----------------  -----------------
      Gh(BR)          0.000000000000     0.000000000000     0.000000000000    78.918337600000
         O           -3.013040000000     1.056931000000    -1.652607000000    15.994914619570
         H           -3.813809000000     1.223376000000    -2.275182000000     1.007825032230
         H           -2.526972000000     0.362284000000    -2.116240000000     1.007825032230
         O            1.719771000000     0.511071000000     2.753016000000    15.994914619570
         H            1.308822000000     0.434263000000     1.867281000000     1.007825032230
         H            1.064406000000     1.091765000000     3.184491000000     1.007825032230
         O            2.086628000000    -1.623677000000    -2.132399000000    15.994914619570
         H            1.634885000000    -1.468970000000    -1.284862000000     1.007825032230
         H            2.494299000000    -0.787280000000    -2.350925000000     1.007825032230
         O            1.986251000000    -2.482713000000     1.611018000000    15.994914619570
         H            2.888043000000    -2.189647000000     1.545517000000     1.007825032230
         H            1.404825000000    -1.913044000000     1.045753000000     1.007825032230
         O           -1.890204000000    -2.588045000000    -0.295930000000    15.994914619570
         H           -1.108235000000    -1.992414000000    -0.188325000000     1.007825032230
         H           -2.004398000000    -3.102901000000     0.508548000000     1.007825032230

  Charge       = 0
  Multiplicity = 1
  Basis Set: AUG-CC-PVTZ
    Blend: AUG-CC-PVTZ
  Basis Set: (AUG-CC-PVTZ AUX)
    Blend: AUG-CC-PVTZ-JKFIT

    Orbital Energies [Eh]
    ---------------------

    Doubly Occupied:

       1A    -20.584407     2A    -20.584241     3A    -20.576994
       4A    -20.576646     5A    -20.575770     6A     -1.365474
       7A     -1.358897     8A     -1.351891     9A     -1.350074
      10A     -1.338281    11A     -0.733946    12A     -0.727745
      13A     -0.724891    14A     -0.709415    15A     -0.695802
      16A     -0.602324    17A     -0.597817    18A     -0.583582
      19A     -0.581374    20A     -0.579667    21A     -0.526860
      22A     -0.524385    23A     -0.516204    24A     -0.510722
      25A     -0.509812

  @DF-RHF Final Energy:  -380.27876754992286

   => Energetics <=

    Nuclear Repulsion Energy =            158.0221877694336854
    One-Electron Energy =                -839.0274601038648825
    Two-Electron Energy =                 300.7265047845083359
    Total Energy =                       -380.2787675499228612
 Dipole X            :        -16.1997388           15.9816293           -0.2181095
 Dipole Y            :         94.4422329          -93.2656037            1.1766292
 Dipole Z            :         -4.4748254            4.1589848           -0.3158406
 Magnitude           :                                                    1.2376523

    SAPT Results
  --------------------------------------------------------------------------------------------------------
    Electrostatics                -81.66307900 [mEh]     -51.24435573 [kcal/mol]    -214.40638438 [kJ/mol]
      Elst10,r                    -80.47032242 [mEh]     -50.49588968 [kcal/mol]    -211.27480241 [kJ/mol]
      Elst12,r                     -1.19275658 [mEh]      -0.74846605 [kcal/mol]      -3.13158197 [kJ/mol]

    Exchange                       74.57759767 [mEh]      46.79814907 [kcal/mol]     195.80345571 [kJ/mol]
      Exch10                       66.42100594 [mEh]      41.67981049 [kcal/mol]     174.38832707 [kJ/mol]
      Exch10(S^2)                  65.64792964 [mEh]      41.19469778 [kcal/mol]     172.35861552 [kJ/mol]
      Exch11(S^2)                   2.94434592 [mEh]       1.84760496 [kcal/mol]       7.73037914 [kJ/mol]
      Exch12(S^2)                   5.21224581 [mEh]       3.27073363 [kcal/mol]      13.68474950 [kJ/mol]

    Induction                     -35.67907888 [mEh]     -22.38896002 [kcal/mol]     -93.67540870 [kJ/mol]
      Ind20,r                     -59.79845570 [mEh]     -37.52409747 [kcal/mol]    -157.00082381 [kJ/mol]
      Ind22                        -7.71960487 [mEh]      -4.84412519 [kcal/mol]     -20.26781980 [kJ/mol]
      Exch-Ind20,r                 36.47368578 [mEh]      22.88758337 [kcal/mol]      95.76164882 [kJ/mol]
      Exch-Ind22                    4.70852364 [mEh]       2.95464319 [kcal/mol]      12.36222712 [kJ/mol]
      delta HF,r (2)               -9.34322773 [mEh]      -5.86296392 [kcal/mol]     -24.53064103 [kJ/mol]

    Dispersion                    -26.53399132 [mEh]     -16.65033093 [kcal/mol]     -69.66498460 [kJ/mol]
      Disp20                      -30.26736638 [mEh]     -18.99305915 [kcal/mol]     -79.46695948 [kJ/mol]
      Disp21                        2.27214693 [mEh]       1.42579373 [kcal/mol]       5.96552095 [kJ/mol]
      Disp22 (SDQ)                 -0.04753877 [mEh]      -0.02983103 [kcal/mol]      -0.12481302 [kJ/mol]
      Disp22 (T)                   -4.78497242 [mEh]      -3.00261553 [kcal/mol]     -12.56294337 [kJ/mol]
      Est. Disp22 (T)              -5.49904629 [mEh]      -3.45070364 [kcal/mol]     -14.43774405 [kJ/mol]
      Exch-Disp20                   7.00781319 [mEh]       4.39746917 [kcal/mol]      18.39901099 [kJ/mol]

  Total HF                        -46.71731414 [mEh]     -29.31555721 [kcal/mol]    -122.65629136 [kJ/mol]
  Total SAPT0                     -69.97686733 [mEh]     -43.91114719 [kcal/mol]    -183.72423985 [kJ/mol]
  Total SAPT2                     -66.02411341 [mEh]     -41.43075666 [kcal/mol]    -173.34628587 [kJ/mol]
  Total SAPT2+                    -69.29855153 [mEh]     -43.48549760 [kcal/mol]    -181.94332198 [kJ/mol]

  Special recipe for scaled SAPT0 (see Manual):
    Electrostatics sSAPT0         -80.47032242 [mEh]     -50.49588968 [kcal/mol]    -211.27480241 [kJ/mol]
    Exchange sSAPT0                66.42100594 [mEh]      41.67981049 [kcal/mol]     174.38832707 [kJ/mol]
    Induction sSAPT0              -31.36421113 [mEh]     -19.68133962 [kcal/mol]     -82.34672497 [kJ/mol]
    Dispersion sSAPT0             -23.00905226 [mEh]     -14.43839827 [kcal/mol]     -60.41025837 [kJ/mol]
  Total sSAPT0                    -68.42257986 [mEh]     -42.93581709 [kcal/mol]    -179.64345868 [kJ/mol]
  --------------------------------------------------------------------------------------------------------

*** Psi4 exiting successfully. Buy a developer a beer!
