                               Psi4 1.8.2 release

  ==> Input File <==

--------------------------------------------------------------------------
MEMORY 60 GB

molecule dimer {
-1 1
Br     0.000000     0.000000     0.000000
--
0 1
O     -0.630320    -1.812852    -2.835716
H      0.099872    -1.746765    -3.480055
H     -0.261433    -1.797117    -1.930378
O      2.945936    -0.416442    -1.486677
H      3.091641     0.065515    -2.290126
H      2.192306    -0.076273    -1.026734
O      1.081383     0.129347     3.221554
H      0.797023     0.138574     2.329944
H      1.856045    -0.415427     3.230156
O      0.682430    -2.991189     1.039180
H      0.558201    -2.053686     0.678418
H      1.365896    -3.343831     0.489197
O     -2.520613    -2.137780     0.741783
H     -2.608792    -1.437443     1.439520
H     -1.795357    -1.828209     0.187538

units ang
no_reorient
no_com
symmetry c1
}

set {
basis        aug-cc-pVTZ
scf_type     df
}

energy("sapt2+")
--------------------------------------------------------------------------

  //              Dimer HF             //
    Molecular point group: c1
  Charge       = -1
  Multiplicity = 1
  Basis Set: AUG-CC-PVTZ
    Blend: AUG-CC-PVTZ
  Basis Set: (AUG-CC-PVTZ AUX)
    Blend: AUG-CC-PVTZ-JKFIT
  @DF-RHF Final Energy: -2952.87530924403700
    Total Energy =                      -2952.8753092440369983
 Dipole X            :        -32.5144679           33.5727421            1.0582741
 Dipole Y            :        134.8969237         -132.8968606            2.0000631
 Dipole Z            :        -10.8442690            9.5780240           -1.2662450
 Magnitude           :                                                    2.5929854
  //            Monomer A HF           //
    Molecular point group: c1
  Multiplicity = 1
  Basis Set: AUG-CC-PVTZ
    Blend: AUG-CC-PVTZ
  Basis Set: (AUG-CC-PVTZ AUX)
    Blend: AUG-CC-PVTZ-JKFIT
  @DF-RHF Final Energy: -2572.53373250753157
    Total Energy =                      -2572.5337325075320223
  //            Monomer B HF           //
    Molecular point group: c1

    Geometry (in Angstrom), charge = 0, multiplicity = 1:

       Center              X                  Y                   Z               Mass
    ------------   -----------------  -----------------  -----------------  -----------------
      Gh(BR)          0.000000000000     0.000000000000     0.000000000000    78.918337600000
         O           -0.630320000000    -1.812852000000    -2.835716000000    15.994914619570
         H            0.099872000000    -1.746765000000    -3.480055000000     1.007825032230
         H           -0.261433000000    -1.797117000000    -1.930378000000     1.007825032230
         O            2.945936000000    -0.416442000000    -1.486677000000    15.994914619570
         H            3.091641000000     0.065515000000    -2.290126000000     1.007825032230
         H            2.192306000000    -0.076273000000    -1.026734000000     1.007825032230
         O            1.081383000000     0.129347000000     3.221554000000    15.994914619570
         H            0.797023000000     0.138574000000     2.329944000000     1.007825032230
         H            1.856045000000    -0.415427000000     3.230156000000     1.007825032230
         O            0.682430000000    -2.991189000000     1.039180000000    15.994914619570
         H            0.558201000000    -2.053686000000     0.678418000000     1.007825032230
         H            1.365896000000    -3.343831000000     0.489197000000     1.007825032230
         O           -2.520613000000    -2.137780000000     0.741783000000    15.994914619570
         H           -2.608792000000    -1.437443000000     1.439520000000     1.007825032230
         H           -1.795357000000    -1.828209000000     0.187538000000     1.007825032230

  Charge       = 0
  Multiplicity = 1
  Basis Set: AUG-CC-PVTZ
    Blend: AUG-CC-PVTZ
  Basis Set: (AUG-CC-PVTZ AUX)
    Blend: AUG-CC-PVTZ-JKFIT

    Orbital Energies [Eh]
    ---------------------

    Doubly Occupied:

       1A    -20.594751     2A    -20.591556     3A    -20.585403
       4A    -20.574037     5A    -20.569852     6A     -1.386718
       7A     -1.371410     8A     -1.364544     9A     -1.357355
      10A     -1.342265    11A     -0.767485    12A     -0.738342
      13A     -0.733598    14A     -0.724877    15A     -0.703820
      16A     -0.607118    17A     -0.601467    18A     -0.596095
      19A     -0.588253    20A     -0.579463    21A     -0.541555
      22A     -0.530031    23A     -0.523699    24A     -0.520662
      25A     -0.505646

  @DF-RHF Final Energy:  -380.28426348599078

   => Energetics <=

    Nuclear Repulsion Energy =            166.3381620846167550
    One-Electron Energy =                -855.2448380218061175
    Two-Electron Energy =                 308.6224124511985565
    Total Energy =                       -380.2842634859907776
 Dipole X            :        -32.1020667           33.5727421            1.4706754
 Dipole Y            :        134.0433493         -132.8968606            1.1464887
 Dipole Z            :        -10.7149696            9.5780240           -1.1369457
 Magnitude           :                                                    2.1840256

    SAPT Results
  --------------------------------------------------------------------------------------------------------
    Electrostatics                -98.71765848 [mEh]     -61.94626593 [kcal/mol]    -259.18317664 [kJ/mol]
      Elst10,r                    -98.26338386 [mEh]     -61.66120430 [kcal/mol]    -257.99047878 [kJ/mol]
      Elst12,r                     -0.45427462 [mEh]      -0.28506163 [kcal/mol]      -1.19269786 [kJ/mol]

    Exchange                       83.11897825 [mEh]      52.15794630 [kcal/mol]     218.22884733 [kJ/mol]
      Exch10                       73.93859900 [mEh]      46.39717135 [kcal/mol]     194.12576493 [kJ/mol]
      Exch10(S^2)                  72.99065499 [mEh]      45.80232751 [kcal/mol]     191.63693829 [kJ/mol]
      Exch11(S^2)                   3.38864861 [mEh]       2.12640910 [kcal/mol]       8.89689569 [kJ/mol]
      Exch12(S^2)                   5.79173064 [mEh]       3.63436585 [kcal/mol]      15.20618671 [kJ/mol]

    Induction                     -36.28980054 [mEh]     -22.77219364 [kcal/mol]     -95.27885820 [kJ/mol]
      Ind20,r                     -63.49339716 [mEh]     -39.84270824 [kcal/mol]    -166.70189128 [kJ/mol]
      Ind22                        -8.88699661 [mEh]      -5.57667457 [kcal/mol]     -23.33280638 [kJ/mol]
      Exch-Ind20,r                 39.90691723 [mEh]      25.04196863 [kcal/mol]     104.77559674 [kJ/mol]
      Exch-Ind22                    5.58566172 [mEh]       3.50505565 [kcal/mol]      14.66515283 [kJ/mol]
      delta HF,r (2)               -9.40198572 [mEh]      -5.89983511 [kcal/mol]     -24.68491010 [kJ/mol]

    Dispersion                    -29.16103214 [mEh]     -18.29882393 [kcal/mol]     -76.56227933 [kJ/mol]
      Disp20                      -33.31459322 [mEh]     -20.90522286 [kcal/mol]     -87.46745246 [kJ/mol]
      Disp21                        2.48484252 [mEh]       1.55926222 [kcal/mol]       6.52395314 [kJ/mol]
      Disp22 (SDQ)                 -0.09901496 [mEh]      -0.06213282 [kcal/mol]      -0.25996373 [kJ/mol]
      Disp22 (T)                   -5.29672267 [mEh]      -3.32374366 [kcal/mol]     -13.90654346 [kJ/mol]
      Est. Disp22 (T)              -6.04598085 [mEh]      -3.79391026 [kcal/mol]     -15.87372053 [kJ/mol]
      Exch-Disp20                   7.81371436 [mEh]       4.90317979 [kcal/mol]      20.51490423 [kJ/mol]

  Total HF                        -57.31325051 [mEh]     -35.96460767 [kcal/mol]    -150.47591850 [kJ/mol]
  Total SAPT0                     -82.81412937 [mEh]     -51.96665074 [kcal/mol]    -217.42846672 [kJ/mol]
  Total SAPT2                     -77.38935964 [mEh]     -48.56255634 [kcal/mol]    -203.18573573 [kJ/mol]
  Total SAPT2+                    -81.04951292 [mEh]     -50.85933720 [kcal/mol]    -212.79546685 [kJ/mol]

  Special recipe for scaled SAPT0 (see Manual):
    Electrostatics sSAPT0         -98.26338386 [mEh]     -61.66120430 [kcal/mol]    -257.99047878 [kJ/mol]
    Exchange sSAPT0                73.93859900 [mEh]      46.39717135 [kcal/mol]     194.12576493 [kJ/mol]
    Induction sSAPT0              -31.41334830 [mEh]     -19.71217366 [kcal/mol]     -82.47573459 [kJ/mol]
    Dispersion sSAPT0             -25.19247325 [mEh]     -15.80851563 [kcal/mol]     -66.14282941 [kJ/mol]
  Total sSAPT0                    -80.93060641 [mEh]     -50.78472224 [kcal/mol]    -212.48327784 [kJ/mol]
  --------------------------------------------------------------------------------------------------------

*** Psi4 exiting successfully. Buy a developer a beer!
