                               Psi4 1.8.2 release

  ==> Input File <==

--------------------------------------------------------------------------
MEMORY 60 GB

molecule dimer {
-1 1
Br     0.000000     0.000000     0.000000
--
0 1
O     -2.276881    -1.899460     1.400580
H     -2.198589    -1.582245     2.312148
H     -1.483800    -1.556681     0.911434
O      0.558217    -1.514625     3.077996
H      0.481697    -2.382991     2.719831
H      0.514443    -0.980773     2.257969
O     -3.207653     0.544694    -0.640069
H     -2.307200     0.537132    -0.484230
H     -3.309605     1.334027    -1.206248
O     -1.719668     1.404403     2.550898
H     -0.978194     1.949422     2.833464
H     -1.447545     0.991534     1.688828

units ang
no_reorient
no_com
symmetry c1
}

set {
basis        aug-cc-pVTZ
scf_type     df
}

energy("sapt2+")
--------------------------------------------------------------------------

  //              Dimer HF             //
    Molecular point group: c1
  Charge       = -1
  Multiplicity = 1
  Basis Set: AUG-CC-PVTZ
    Blend: AUG-CC-PVTZ
  Basis Set: (AUG-CC-PVTZ AUX)
    Blend: AUG-CC-PVTZ-JKFIT
  @DF-RHF Final Energy: -2876.80904776657007
    Total Energy =                      -2876.8090477665696199
 Dipole X            :        123.0056947         -120.7472123            2.2584825
 Dipole Y            :         26.2759150          -25.3421325            0.9337825
 Dipole Z            :       -119.2167267          117.4435232           -1.7732035
 Magnitude           :                                                    3.0194277
  //            Monomer A HF           //
    Molecular point group: c1
  Multiplicity = 1
  Basis Set: AUG-CC-PVTZ
    Blend: AUG-CC-PVTZ
  Basis Set: (AUG-CC-PVTZ AUX)
    Blend: AUG-CC-PVTZ-JKFIT
  @DF-RHF Final Energy: -2572.53372167037651
    Total Energy =                      -2572.5337216703765080
  //            Monomer B HF           //
    Molecular point group: c1

    Geometry (in Angstrom), charge = 0, multiplicity = 1:

       Center              X                  Y                   Z               Mass
    ------------   -----------------  -----------------  -----------------  -----------------
      Gh(BR)          0.000000000000     0.000000000000     0.000000000000    78.918337600000
         O           -2.276881000000    -1.899460000000     1.400580000000    15.994914619570
         H           -2.198589000000    -1.582245000000     2.312148000000     1.007825032230
         H           -1.483800000000    -1.556681000000     0.911434000000     1.007825032230
         O            0.558217000000    -1.514625000000     3.077996000000    15.994914619570
         H            0.481697000000    -2.382991000000     2.719831000000     1.007825032230
         H            0.514443000000    -0.980773000000     2.257969000000     1.007825032230
         O           -3.207653000000     0.544694000000    -0.640069000000    15.994914619570
         H           -2.307200000000     0.537132000000    -0.484230000000     1.007825032230
         H           -3.309605000000     1.334027000000    -1.206248000000     1.007825032230
         O           -1.719668000000     1.404403000000     2.550898000000    15.994914619570
         H           -0.978194000000     1.949422000000     2.833464000000     1.007825032230
         H           -1.447545000000     0.991534000000     1.688828000000     1.007825032230

  Charge       = 0
  Multiplicity = 1
  Basis Set: AUG-CC-PVTZ
    Blend: AUG-CC-PVTZ
  Basis Set: (AUG-CC-PVTZ AUX)
    Blend: AUG-CC-PVTZ-JKFIT

    Orbital Energies [Eh]
    ---------------------

    Doubly Occupied:

       1A    -20.583758     2A    -20.581477     3A    -20.570864
       4A    -20.570313     5A     -1.369940     6A     -1.367977
       7A     -1.353385     8A     -1.341154     9A     -0.728764
      10A     -0.722627    11A     -0.718826    12A     -0.708965
      13A     -0.607584    14A     -0.595164    15A     -0.587532
      16A     -0.577133    17A     -0.526505    18A     -0.520302
      19A     -0.515018    20A     -0.505808

  @DF-RHF Final Energy:  -304.22311261909277

   => Energetics <=

    Nuclear Repulsion Energy =            122.4145731322672788
    One-Electron Energy =                -663.1691703088322356
    Two-Electron Energy =                 236.5314845574721971
    Total Energy =                       -304.2231126190927739
 Dipole X            :        122.2923721         -120.7472123            1.5451598
 Dipole Y            :         26.1379189          -25.3421325            0.7957864
 Dipole Z            :       -118.4465163          117.4435232           -1.0029931
 Magnitude           :                                                    2.0066863

    SAPT Results
  --------------------------------------------------------------------------------------------------------
    Electrostatics                -85.67188408 [mEh]     -53.75991890 [kcal/mol]    -224.93150066 [kJ/mol]
      Elst10,r                    -85.59456380 [mEh]     -53.71139969 [kcal/mol]    -224.72849631 [kJ/mol]
      Elst12,r                     -0.07732027 [mEh]      -0.04851920 [kcal/mol]      -0.20300435 [kJ/mol]

    Exchange                       68.60518387 [mEh]      43.05040283 [kcal/mol]     180.12288542 [kJ/mol]
      Exch10                       60.92689048 [mEh]      38.23220098 [kcal/mol]     159.96352891 [kJ/mol]
      Exch10(S^2)                  59.94358034 [mEh]      37.61516456 [kcal/mol]     157.38184850 [kJ/mol]
      Exch11(S^2)                   2.90407872 [mEh]       1.82233691 [kcal/mol]       7.62465763 [kJ/mol]
      Exch12(S^2)                   4.77421467 [mEh]       2.99586493 [kcal/mol]      12.53469889 [kJ/mol]

    Induction                     -30.24430728 [mEh]     -18.97858935 [kcal/mol]     -79.40641783 [kJ/mol]
      Ind20,r                     -52.06930575 [mEh]     -32.67398265 [kcal/mol]    -136.70794342 [kJ/mol]
      Ind22                        -7.42068698 [mEh]      -4.65655138 [kcal/mol]     -19.48301099 [kJ/mol]
      Exch-Ind20,r                 33.13450841 [mEh]      20.79221794 [kcal/mol]      86.99463984 [kJ/mol]
      Exch-Ind22                    4.72218348 [mEh]       2.96321487 [kcal/mol]      12.39809101 [kJ/mol]
      delta HF,r (2)               -8.61100643 [mEh]      -5.40348811 [kcal/mol]     -22.60819427 [kJ/mol]

    Dispersion                    -23.78170646 [mEh]     -14.92324610 [kcal/mol]     -62.43886170 [kJ/mol]
      Disp20                      -27.32719768 [mEh]     -17.14807544 [kcal/mol]     -71.74754763 [kJ/mol]
      Disp21                        2.16512721 [mEh]       1.35863783 [kcal/mol]       5.68454070 [kJ/mol]
      Disp22 (SDQ)                 -0.13259396 [mEh]      -0.08320396 [kcal/mol]      -0.34812539 [kJ/mol]
      Disp22 (T)                   -4.35681738 [mEh]      -2.73394418 [kcal/mol]     -11.43882247 [kJ/mol]
      Est. Disp22 (T)              -4.97946045 [mEh]      -3.12465861 [kcal/mol]     -13.07357161 [kJ/mol]
      Exch-Disp20                   6.49241843 [mEh]       4.07405407 [kcal/mol]      17.04584224 [kJ/mol]

  Total HF                        -52.21347710 [mEh]     -32.76445154 [kcal/mol]    -137.08646524 [kJ/mol]
  Total SAPT0                     -73.04825635 [mEh]     -45.83847290 [kcal/mol]    -191.78817063 [kJ/mol]
  Total SAPT2                     -68.14578675 [mEh]     -42.76212678 [kcal/mol]    -178.91673845 [kJ/mol]
  Total SAPT2+                    -71.09271395 [mEh]     -44.61135152 [kcal/mol]    -186.65389476 [kJ/mol]

  Special recipe for scaled SAPT0 (see Manual):
    Electrostatics sSAPT0         -85.59456380 [mEh]     -53.71139969 [kcal/mol]    -224.72849631 [kJ/mol]
    Exchange sSAPT0                60.92689048 [mEh]      38.23220098 [kcal/mol]     159.96352891 [kJ/mol]
    Induction sSAPT0              -25.88830093 [mEh]     -16.24515409 [kcal/mol]     -67.96972473 [kJ/mol]
    Dispersion sSAPT0             -20.51000600 [mEh]     -12.87022307 [kcal/mol]     -53.84901334 [kJ/mol]
  Total sSAPT0                    -71.06598026 [mEh]     -44.59457588 [kcal/mol]    -186.58370546 [kJ/mol]
  --------------------------------------------------------------------------------------------------------

*** Psi4 exiting successfully. Buy a developer a beer!
