                               Psi4 1.8.2 release

  ==> Input File <==

--------------------------------------------------------------------------
MEMORY 60 GB

molecule dimer {
-1 1
Br     0.000000     0.000000     0.000000
--
0 1
O     -0.039065     1.360465    -3.062156
H     -0.212638     0.478259    -3.493798
H      0.045206     1.278611    -2.107441
O     -2.989528     1.408932     0.945248
H     -2.062048     1.043559     0.850710
H     -2.903099     2.019723     1.687443
O     -2.974629    -1.593570    -0.781374
H     -2.231751    -1.030002    -0.687159
H     -2.758326    -2.380343    -0.265965
O      0.721300     2.711650     2.171943
H      1.708723     2.884228     1.993117
H      0.459653     1.920161     1.656005

units ang
no_reorient
no_com
symmetry c1
}

set {
basis        aug-cc-pVTZ
scf_type     df
}

energy("sapt2+")
--------------------------------------------------------------------------

  //              Dimer HF             //
    Molecular point group: c1
  Charge       = -1
  Multiplicity = 1
  Basis Set: AUG-CC-PVTZ
    Blend: AUG-CC-PVTZ
  Basis Set: (AUG-CC-PVTZ AUX)
    Blend: AUG-CC-PVTZ-JKFIT
  @DF-RHF Final Energy: -2876.80911779793132
    Total Energy =                      -2876.8091177979313215
 Dipole X            :         97.0181774          -94.8824987            2.1356787
 Dipole Y            :        -71.9303424           70.5132633           -1.4170791
 Dipole Z            :         12.4043342          -11.6743501            0.7299842
 Magnitude           :                                                    2.6649791
  //            Monomer A HF           //
    Molecular point group: c1
  Multiplicity = 1
  Basis Set: AUG-CC-PVTZ
    Blend: AUG-CC-PVTZ
  Basis Set: (AUG-CC-PVTZ AUX)
    Blend: AUG-CC-PVTZ-JKFIT
  @DF-RHF Final Energy: -2572.53371847067001
    Total Energy =                      -2572.5337184706700100
  //            Monomer B HF           //
    Molecular point group: c1

    Geometry (in Angstrom), charge = 0, multiplicity = 1:

       Center              X                  Y                   Z               Mass
    ------------   -----------------  -----------------  -----------------  -----------------
      Gh(BR)          0.000000000000     0.000000000000     0.000000000000    78.918337600000
         O           -0.039065000000     1.360465000000    -3.062156000000    15.994914619570
         H           -0.212638000000     0.478259000000    -3.493798000000     1.007825032230
         H            0.045206000000     1.278611000000    -2.107441000000     1.007825032230
         O           -2.989528000000     1.408932000000     0.945248000000    15.994914619570
         H           -2.062048000000     1.043559000000     0.850710000000     1.007825032230
         H           -2.903099000000     2.019723000000     1.687443000000     1.007825032230
         O           -2.974629000000    -1.593570000000    -0.781374000000    15.994914619570
         H           -2.231751000000    -1.030002000000    -0.687159000000     1.007825032230
         H           -2.758326000000    -2.380343000000    -0.265965000000     1.007825032230
         O            0.721300000000     2.711650000000     2.171943000000    15.994914619570
         H            1.708723000000     2.884228000000     1.993117000000     1.007825032230
         H            0.459653000000     1.920161000000     1.656005000000     1.007825032230

  Charge       = 0
  Multiplicity = 1
  Basis Set: AUG-CC-PVTZ
    Blend: AUG-CC-PVTZ
  Basis Set: (AUG-CC-PVTZ AUX)
    Blend: AUG-CC-PVTZ-JKFIT

    Orbital Energies [Eh]
    ---------------------

    Doubly Occupied:

       1A    -20.591568     2A    -20.578275     3A    -20.575574
       4A    -20.569235     5A     -1.359961     6A     -1.350034
       7A     -1.347554     8A     -1.345706     9A     -0.726569
      10A     -0.726209    11A     -0.720212    12A     -0.706055
      13A     -0.589322    14A     -0.588667    15A     -0.586416
      16A     -0.574232    17A     -0.524639    18A     -0.516406
      19A     -0.513790    20A     -0.510918

  @DF-RHF Final Energy:  -304.22126608478248

   => Energetics <=

    Nuclear Repulsion Energy =            104.7633510517164979
    One-Electron Energy =                -627.9665434531755182
    Two-Electron Energy =                 218.9819263166765495
    Total Energy =                       -304.2212660847824282
 Dipole X            :         96.5128860          -94.8824987            1.6303873
 Dipole Y            :        -71.4784059           70.5132633           -0.9651426
 Dipole Z            :         12.4104527          -11.6743501            0.7361026
 Magnitude           :                                                    2.0326117

    SAPT Results
  --------------------------------------------------------------------------------------------------------
    Electrostatics                -78.15596504 [mEh]     -49.04360849 [kcal/mol]    -205.19845793 [kJ/mol]
      Elst10,r                    -78.54020223 [mEh]     -49.28472097 [kcal/mol]    -206.20727255 [kJ/mol]
      Elst12,r                      0.38423719 [mEh]       0.24111248 [kcal/mol]       1.00881461 [kJ/mol]

    Exchange                       53.38170190 [mEh]      33.49752367 [kcal/mol]     140.15363902 [kJ/mol]
      Exch10                       47.06931464 [mEh]      29.53644086 [kcal/mol]     123.58046856 [kJ/mol]
      Exch10(S^2)                  46.75136310 [mEh]      29.33692326 [kcal/mol]     122.74568691 [kJ/mol]
      Exch11(S^2)                   2.36190372 [mEh]       1.48211696 [kcal/mol]       6.20117735 [kJ/mol]
      Exch12(S^2)                   3.95048354 [mEh]       2.47896585 [kcal/mol]      10.37199311 [kJ/mol]

    Induction                     -24.90714419 [mEh]     -15.62946894 [kcal/mol]     -65.39369806 [kJ/mol]
      Ind20,r                     -41.45515262 [mEh]     -26.01350101 [kcal/mol]    -108.84048822 [kJ/mol]
      Ind22                        -5.76912258 [mEh]      -3.62017908 [kcal/mol]     -15.14682925 [kJ/mol]
      Exch-Ind20,r                 25.32478241 [mEh]      15.89154088 [kcal/mol]      66.49020705 [kJ/mol]
      Exch-Ind22                    3.52433328 [mEh]       2.21155252 [kcal/mol]       9.25313576 [kJ/mol]
      delta HF,r (2)               -6.53198467 [mEh]      -4.09888226 [kcal/mol]     -17.14972339 [kJ/mol]

    Dispersion                    -20.54903397 [mEh]     -12.89471349 [kcal/mol]     -53.95148125 [kJ/mol]
      Disp20                      -23.00969850 [mEh]     -14.43880380 [kcal/mol]     -60.41195509 [kJ/mol]
      Disp21                        1.46472997 [mEh]       0.91913193 [kcal/mol]       3.84564801 [kJ/mol]
      Disp22 (SDQ)                 -0.05259350 [mEh]      -0.03300292 [kcal/mol]      -0.13808422 [kJ/mol]
      Disp22 (T)                   -3.68638677 [mEh]      -2.31324263 [kcal/mol]      -9.67860714 [kJ/mol]
      Est. Disp22 (T)              -4.23221095 [mEh]      -2.65575246 [kcal/mol]     -11.11166831 [kJ/mol]
      Exch-Disp20                   5.28073901 [mEh]       3.31371376 [kcal/mol]      13.86457837 [kJ/mol]

  Total HF                        -54.13324248 [mEh]     -33.96912250 [kcal/mol]    -142.12680855 [kJ/mol]
  Total SAPT0                     -71.86220197 [mEh]     -45.09421254 [kcal/mol]    -188.67418527 [kJ/mol]
  Total SAPT2                     -67.41036682 [mEh]     -42.30064381 [kcal/mol]    -176.98589369 [kJ/mol]
  Total SAPT2+                    -70.23044130 [mEh]     -44.07026726 [kcal/mol]    -184.38999822 [kJ/mol]

  Special recipe for scaled SAPT0 (see Manual):
    Electrostatics sSAPT0         -78.54020223 [mEh]     -49.28472097 [kcal/mol]    -206.20727255 [kJ/mol]
    Exchange sSAPT0                47.06931464 [mEh]      29.53644086 [kcal/mol]     123.58046856 [kJ/mol]
    Induction sSAPT0              -22.14213868 [mEh]     -13.89440179 [kcal/mol]     -58.13417710 [kJ/mol]
    Dispersion sSAPT0             -17.62048369 [mEh]     -11.05702045 [kcal/mol]     -46.26257355 [kJ/mol]
  Total sSAPT0                    -71.23350996 [mEh]     -44.69970235 [kcal/mol]    -187.02355463 [kJ/mol]
  --------------------------------------------------------------------------------------------------------

*** Psi4 exiting successfully. Buy a developer a beer!
