                               Psi4 1.8.2 release

  ==> Input File <==

--------------------------------------------------------------------------
MEMORY 60 GB

molecule dimer {
-1 1
Br     0.000000     0.000000     0.000000
--
0 1
O     -2.938072     0.464389    -1.439165
H     -3.102087    -0.253086    -2.073190
H     -2.195405     0.228367    -0.888619
O      0.951332    -1.540440     3.027413
H      0.711603    -1.098178     2.200969
H      1.717176    -1.031261     3.320463
O     -1.884440    -1.671342     2.485385
H     -1.607087    -1.301256     1.617131
H     -1.710697    -2.626941     2.322726
O     -0.392709    -1.832615    -2.914916
H     -0.373963    -1.332135    -2.100379
H     -0.385090    -1.142787    -3.601259
O      2.389714    -2.096131    -1.711884
H      1.528994    -2.124078    -1.386041
H      2.910463    -1.647935    -1.049521

units ang
no_reorient
no_com
symmetry c1
}

set {
basis        aug-cc-pVTZ
scf_type     df
}

energy("sapt2+")
--------------------------------------------------------------------------

  //              Dimer HF             //
    Molecular point group: c1
  Charge       = -1
  Multiplicity = 1
  Basis Set: AUG-CC-PVTZ
    Blend: AUG-CC-PVTZ
  Basis Set: (AUG-CC-PVTZ AUX)
    Blend: AUG-CC-PVTZ-JKFIT
  @DF-RHF Final Energy: -2952.87788118653407
    Total Energy =                      -2952.8778811865340685
 Dipole X            :         34.1456783          -33.0692491            1.0764292
 Dipole Y            :        125.5139609         -124.2275757            1.2863852
 Dipole Z            :         11.2004810          -11.4575153           -0.2570343
 Magnitude           :                                                    1.6969247
  //            Monomer A HF           //
    Molecular point group: c1
  Multiplicity = 1
  Basis Set: AUG-CC-PVTZ
    Blend: AUG-CC-PVTZ
  Basis Set: (AUG-CC-PVTZ AUX)
    Blend: AUG-CC-PVTZ-JKFIT
  @DF-RHF Final Energy: -2572.53372489303774
    Total Energy =                      -2572.5337248930372880
  //            Monomer B HF           //
    Molecular point group: c1

    Geometry (in Angstrom), charge = 0, multiplicity = 1:

       Center              X                  Y                   Z               Mass
    ------------   -----------------  -----------------  -----------------  -----------------
      Gh(BR)          0.000000000000     0.000000000000     0.000000000000    78.918337600000
         O           -2.938072000000     0.464389000000    -1.439165000000    15.994914619570
         H           -3.102087000000    -0.253086000000    -2.073190000000     1.007825032230
         H           -2.195405000000     0.228367000000    -0.888619000000     1.007825032230
         O            0.951332000000    -1.540440000000     3.027413000000    15.994914619570
         H            0.711603000000    -1.098178000000     2.200969000000     1.007825032230
         H            1.717176000000    -1.031261000000     3.320463000000     1.007825032230
         O           -1.884440000000    -1.671342000000     2.485385000000    15.994914619570
         H           -1.607087000000    -1.301256000000     1.617131000000     1.007825032230
         H           -1.710697000000    -2.626941000000     2.322726000000     1.007825032230
         O           -0.392709000000    -1.832615000000    -2.914916000000    15.994914619570
         H           -0.373963000000    -1.332135000000    -2.100379000000     1.007825032230
         H           -0.385090000000    -1.142787000000    -3.601259000000     1.007825032230
         O            2.389714000000    -2.096131000000    -1.711884000000    15.994914619570
         H            1.528994000000    -2.124078000000    -1.386041000000     1.007825032230
         H            2.910463000000    -1.647935000000    -1.049521000000     1.007825032230

  Charge       = 0
  Multiplicity = 1
  Basis Set: AUG-CC-PVTZ
    Blend: AUG-CC-PVTZ
  Basis Set: (AUG-CC-PVTZ AUX)
    Blend: AUG-CC-PVTZ-JKFIT

    Orbital Energies [Eh]
    ---------------------

    Doubly Occupied:

       1A    -20.591726     2A    -20.584031     3A    -20.578339
       4A    -20.577685     5A    -20.569707     6A     -1.376120
       7A     -1.368988     8A     -1.365596     9A     -1.359788
      10A     -1.347882    11A     -0.745872    12A     -0.741008
      13A     -0.730057    14A     -0.719073    15A     -0.699412
      16A     -0.609731    17A     -0.595803    18A     -0.593408
      19A     -0.591956    20A     -0.591042    21A     -0.536627
      22A     -0.525987    23A     -0.524960    24A     -0.515152
      25A     -0.505782

  @DF-RHF Final Energy:  -380.28265845553767

   => Energetics <=

    Nuclear Repulsion Energy =            163.9776338922873435
    One-Electron Energy =                -850.6291180252330832
    Two-Electron Energy =                 306.3688256774080401
    Total Energy =                       -380.2826584555376712
 Dipole X            :         33.8288891          -33.0692491            0.7596400
 Dipole Y            :        124.8412068         -124.2275757            0.6136311
 Dipole Z            :         11.1363317          -11.4575153           -0.3211836
 Magnitude           :                                                    1.0279859

    SAPT Results
  --------------------------------------------------------------------------------------------------------
    Electrostatics                -86.86765471 [mEh]     -54.51027629 [kcal/mol]    -228.07099601 [kJ/mol]
      Elst10,r                    -87.48997670 [mEh]     -54.90078924 [kcal/mol]    -229.70490219 [kJ/mol]
      Elst12,r                      0.62232199 [mEh]       0.39051295 [kcal/mol]       1.63390617 [kJ/mol]

    Exchange                       58.44495220 [mEh]      36.67476120 [kcal/mol]     153.44720086 [kJ/mol]
      Exch10                       51.54608792 [mEh]      32.34565850 [kcal/mol]     135.33423518 [kJ/mol]
      Exch10(S^2)                  51.05299704 [mEh]      32.03623931 [kcal/mol]     134.03962527 [kJ/mol]
      Exch11(S^2)                   2.55532660 [mEh]       1.60349165 [kcal/mol]       6.70900906 [kJ/mol]
      Exch12(S^2)                   4.34353768 [mEh]       2.72561105 [kcal/mol]      11.40395662 [kJ/mol]

    Induction                     -28.07709497 [mEh]     -17.61864309 [kcal/mol]     -73.71640268 [kJ/mol]
      Ind20,r                     -46.75286516 [mEh]     -29.33786582 [kcal/mol]    -122.74963057 [kJ/mol]
      Ind22                        -6.30941514 [mEh]      -3.95921777 [kcal/mol]     -16.56536716 [kJ/mol]
      Exch-Ind20,r                 28.05631523 [mEh]      17.60560361 [kcal/mol]      73.66184550 [kJ/mol]
      Exch-Ind22                    3.78626934 [mEh]       2.37591988 [kcal/mol]       9.94084879 [kJ/mol]
      delta HF,r (2)               -6.85739924 [mEh]      -4.30308299 [kcal/mol]     -18.00409924 [kJ/mol]

    Dispersion                    -23.32494319 [mEh]     -14.63662283 [kcal/mol]     -61.23962991 [kJ/mol]
      Disp20                      -26.10175648 [mEh]     -16.37909947 [kcal/mol]     -68.53015220 [kJ/mol]
      Disp21                        1.83670802 [mEh]       1.15255169 [kcal/mol]       4.82227625 [kJ/mol]
      Disp22 (SDQ)                 -0.12747375 [mEh]      -0.07999098 [kcal/mol]      -0.33468228 [kJ/mol]
      Disp22 (T)                   -4.18101802 [mEh]      -2.62362842 [kcal/mol]     -10.97726131 [kJ/mol]
      Est. Disp22 (T)              -4.82429426 [mEh]      -3.02729035 [kcal/mol]     -12.66618284 [kJ/mol]
      Exch-Disp20                   5.89187328 [mEh]       3.69720630 [kcal/mol]      15.46911116 [kJ/mol]

  Total HF                        -61.49783796 [mEh]     -38.59047594 [kcal/mol]    -161.46255132 [kJ/mol]
  Total SAPT0                     -81.70772116 [mEh]     -51.27236911 [kcal/mol]    -214.52359236 [kJ/mol]
  Total SAPT2                     -76.70968068 [mEh]     -48.13605136 [kcal/mol]    -201.40123888 [kJ/mol]
  Total SAPT2+                    -79.82474067 [mEh]     -50.09078101 [kcal/mol]    -209.57982774 [kJ/mol]

  Special recipe for scaled SAPT0 (see Manual):
    Electrostatics sSAPT0         -87.48997670 [mEh]     -54.90078924 [kcal/mol]    -229.70490219 [kJ/mol]
    Exchange sSAPT0                51.54608792 [mEh]      32.34565850 [kcal/mol]     135.33423518 [kJ/mol]
    Induction sSAPT0              -24.73313385 [mEh]     -15.52027581 [kcal/mol]     -64.93683399 [kJ/mol]
    Dispersion sSAPT0             -20.03751061 [mEh]     -12.57372774 [kcal/mol]     -52.60847686 [kJ/mol]
  Total sSAPT0                    -80.71453325 [mEh]     -50.64913429 [kcal/mol]    -211.91597785 [kJ/mol]
  --------------------------------------------------------------------------------------------------------

*** Psi4 exiting successfully. Buy a developer a beer!
