                               Psi4 1.8.2 release

  ==> Input File <==

--------------------------------------------------------------------------
MEMORY 60 GB

molecule dimer {
-1 1
Br     0.000000     0.000000     0.000000
--
0 1
O      2.375991     1.403050     1.759821
H      1.608804     1.035722     1.188101
H      3.062120     1.668836     1.129100
O      2.883715    -1.624042    -0.731104
H      3.463684    -1.974029    -0.037743
H      2.061357    -1.406903    -0.251967

units ang
no_reorient
no_com
symmetry c1
}

set {
basis        aug-cc-pVTZ
scf_type     df
}

energy("sapt2+")
--------------------------------------------------------------------------

  //              Dimer HF             //
    Molecular point group: c1
  Charge       = -1
  Multiplicity = 1
  Basis Set: AUG-CC-PVTZ
    Blend: AUG-CC-PVTZ
  Basis Set: (AUG-CC-PVTZ AUX)
    Blend: AUG-CC-PVTZ-JKFIT
  @DF-RHF Final Energy: -2724.67295132647723
    Total Energy =                      -2724.6729513264772322
 Dipole X            :        -99.7149229           98.7828122           -0.9321107
 Dipole Y            :          4.4327323           -4.6190765           -0.1863441
 Dipole Z            :        -19.6491122           19.3833498           -0.2657624
 Magnitude           :                                                    0.9870077
  //            Monomer A HF           //
    Molecular point group: c1
  Multiplicity = 1
  Basis Set: AUG-CC-PVTZ
    Blend: AUG-CC-PVTZ
  Basis Set: (AUG-CC-PVTZ AUX)
    Blend: AUG-CC-PVTZ-JKFIT
  @DF-RHF Final Energy: -2572.53369684612653
    Total Energy =                      -2572.5336968461265315
  //            Monomer B HF           //
    Molecular point group: c1

    Geometry (in Angstrom), charge = 0, multiplicity = 1:

       Center              X                  Y                   Z               Mass
    ------------   -----------------  -----------------  -----------------  -----------------
      Gh(BR)          0.000000000000     0.000000000000     0.000000000000    78.918337600000
         O            2.375991000000     1.403050000000     1.759821000000    15.994914619570
         H            1.608804000000     1.035722000000     1.188101000000     1.007825032230
         H            3.062120000000     1.668836000000     1.129100000000     1.007825032230
         O            2.883715000000    -1.624042000000    -0.731104000000    15.994914619570
         H            3.463684000000    -1.974029000000    -0.037743000000     1.007825032230
         H            2.061357000000    -1.406903000000    -0.251967000000     1.007825032230

  Charge       = 0
  Multiplicity = 1
  Basis Set: AUG-CC-PVTZ
    Blend: AUG-CC-PVTZ
  Basis Set: (AUG-CC-PVTZ AUX)
    Blend: AUG-CC-PVTZ-JKFIT

    Orbital Energies [Eh]
    ---------------------

    Doubly Occupied:

       1A    -20.578135     2A    -20.576234     3A     -1.352382
       4A     -1.338785     5A     -0.713671     6A     -0.703156
       7A     -0.590072     8A     -0.580047     9A     -0.516820
      10A     -0.510550

  @DF-RHF Final Energy:  -152.11326005421020

   => Energetics <=

    Nuclear Repulsion Energy =             31.6696573713853837
    One-Electron Energy =                -272.6461259374713677
    Two-Electron Energy =                  88.8632085118757971
    Total Energy =                       -152.1132600542102011
 Dipole X            :        -98.9604187           98.7828122           -0.1776065
 Dipole Y            :          4.4701510           -4.6190765           -0.1489254
 Dipole Z            :        -19.3952201           19.3833498           -0.0118702
 Magnitude           :                                                    0.2320857

    SAPT Results
  --------------------------------------------------------------------------------------------------------
    Electrostatics                -43.29513239 [mEh]     -27.16810575 [kcal/mol]    -113.67135444 [kJ/mol]
      Elst10,r                    -42.74879310 [mEh]     -26.82527266 [kcal/mol]    -112.23694081 [kJ/mol]
      Elst12,r                     -0.54633930 [mEh]      -0.34283309 [kcal/mol]      -1.43441363 [kJ/mol]

    Exchange                       38.70490698 [mEh]      24.28769581 [kcal/mol]     101.61971929 [kJ/mol]
      Exch10                       34.92457459 [mEh]      21.91550142 [kcal/mol]      91.69445795 [kJ/mol]
      Exch10(S^2)                  34.42489846 [mEh]      21.60194991 [kcal/mol]      90.38255844 [kJ/mol]
      Exch11(S^2)                   1.41634963 [mEh]       0.88877281 [kcal/mol]       3.71862545 [kJ/mol]
      Exch12(S^2)                   2.36398276 [mEh]       1.48342158 [kcal/mol]       6.20663589 [kJ/mol]

    Induction                     -19.49031868 [mEh]     -12.23035962 [kcal/mol]     -51.17182464 [kJ/mol]
      Ind20,r                     -30.69864146 [mEh]     -19.26368835 [kcal/mol]     -80.59927206 [kJ/mol]
      Ind22                        -3.54909351 [mEh]      -2.22708980 [kcal/mol]      -9.31814373 [kJ/mol]
      Exch-Ind20,r                 19.28005936 [mEh]      12.09841990 [kcal/mol]      50.61978888 [kJ/mol]
      Exch-Ind22                    2.22898247 [mEh]       1.39870762 [kcal/mol]       5.85219266 [kJ/mol]
      delta HF,r (2)               -6.75162553 [mEh]      -4.23670898 [kcal/mol]     -17.72639039 [kJ/mol]

    Dispersion                    -12.52813220 [mEh]      -7.86152164 [kcal/mol]     -32.89260655 [kJ/mol]
      Disp20                      -14.44664098 [mEh]      -9.06540408 [kcal/mol]     -37.92965068 [kJ/mol]
      Disp21                        0.97490741 [mEh]       0.61176364 [kcal/mol]       2.55961905 [kJ/mol]
      Disp22 (SDQ)                  0.08359864 [mEh]       0.05245894 [kcal/mol]       0.21948819 [kJ/mol]
      Disp22 (T)                   -2.24210518 [mEh]      -1.40694224 [kcal/mol]      -5.88664633 [kJ/mol]
      Est. Disp22 (T)              -2.56014381 [mEh]      -1.60651449 [kcal/mol]      -6.72165665 [kJ/mol]
      Exch-Disp20                   3.42014655 [mEh]       2.14617436 [kcal/mol]       8.97959353 [kJ/mol]

  Total HF                        -25.99442614 [mEh]     -16.31174867 [kcal/mol]     -68.24835643 [kJ/mol]
  Total SAPT0                     -37.02092058 [mEh]     -23.23097839 [kcal/mol]     -97.19841358 [kJ/mol]
  Total SAPT2                     -35.10703853 [mEh]     -22.02999927 [kcal/mol]     -92.17351695 [kJ/mol]
  Total SAPT2+                    -36.60867629 [mEh]     -22.97229119 [kcal/mol]     -96.11606635 [kJ/mol]

  Special recipe for scaled SAPT0 (see Manual):
    Electrostatics sSAPT0         -42.74879310 [mEh]     -26.82527266 [kcal/mol]    -112.23694081 [kJ/mol]
    Exchange sSAPT0                34.92457459 [mEh]      21.91550142 [kcal/mol]      91.69445795 [kJ/mol]
    Induction sSAPT0              -17.31841461 [mEh]     -10.86746924 [kcal/mol]     -45.46949129 [kJ/mol]
    Dispersion sSAPT0             -10.87539236 [mEh]      -6.82441174 [kcal/mol]     -28.55333871 [kJ/mol]
  Total sSAPT0                    -36.01802548 [mEh]     -22.60165221 [kcal/mol]     -94.56531286 [kJ/mol]
  --------------------------------------------------------------------------------------------------------

*** Psi4 exiting successfully. Buy a developer a beer!
