                               Psi4 1.8.2 release

  ==> Input File <==

--------------------------------------------------------------------------
MEMORY 60 GB

molecule dimer {
-1 1
Br     0.000000     0.000000     0.000000
--
0 1
O     -0.999022    -2.679634    -1.724013
H     -0.678718    -2.037465    -1.171070
H     -1.864558    -2.807700    -1.354503
O      2.580843    -1.796834    -1.300260
H      2.444330    -2.737774    -1.082597
H      1.984606    -1.292710    -0.800320
O      0.716653    -2.040909     2.401316
H      0.606530    -1.564525     1.571865
H      0.320539    -1.488156     3.042768

units ang
no_reorient
no_com
symmetry c1
}

set {
basis        aug-cc-pVTZ
scf_type     df
}

energy("sapt2+")
--------------------------------------------------------------------------

  //              Dimer HF             //
    Molecular point group: c1
  Charge       = -1
  Multiplicity = 1
  Basis Set: AUG-CC-PVTZ
    Blend: AUG-CC-PVTZ
  Basis Set: (AUG-CC-PVTZ AUX)
    Blend: AUG-CC-PVTZ-JKFIT
  @DF-RHF Final Energy: -2800.74767031961164
    Total Energy =                      -2800.7476703196116432
 Dipole X            :        -41.4524880           40.0631784           -1.3893096
 Dipole Y            :        122.5689054         -121.0697375            1.4991679
 Dipole Z            :          9.8720904           -9.0281911            0.8438992
 Magnitude           :                                                    2.2113008
  //            Monomer A HF           //
    Molecular point group: c1
  Multiplicity = 1
  Basis Set: AUG-CC-PVTZ
    Blend: AUG-CC-PVTZ
  Basis Set: (AUG-CC-PVTZ AUX)
    Blend: AUG-CC-PVTZ-JKFIT
  @DF-RHF Final Energy: -2572.53370969606203
    Total Energy =                      -2572.5337096960620329
  //            Monomer B HF           //
    Molecular point group: c1

    Geometry (in Angstrom), charge = 0, multiplicity = 1:

       Center              X                  Y                   Z               Mass
    ------------   -----------------  -----------------  -----------------  -----------------
      Gh(BR)          0.000000000000     0.000000000000     0.000000000000    78.918337600000
         O           -0.999022000000    -2.679634000000    -1.724013000000    15.994914619570
         H           -0.678718000000    -2.037465000000    -1.171070000000     1.007825032230
         H           -1.864558000000    -2.807700000000    -1.354503000000     1.007825032230
         O            2.580843000000    -1.796834000000    -1.300260000000    15.994914619570
         H            2.444330000000    -2.737774000000    -1.082597000000     1.007825032230
         H            1.984606000000    -1.292710000000    -0.800320000000     1.007825032230
         O            0.716653000000    -2.040909000000     2.401316000000    15.994914619570
         H            0.606530000000    -1.564525000000     1.571865000000     1.007825032230
         H            0.320539000000    -1.488156000000     3.042768000000     1.007825032230

  Charge       = 0
  Multiplicity = 1
  Basis Set: AUG-CC-PVTZ
    Blend: AUG-CC-PVTZ
  Basis Set: (AUG-CC-PVTZ AUX)
    Blend: AUG-CC-PVTZ-JKFIT

    Orbital Energies [Eh]
    ---------------------

    Doubly Occupied:

       1A    -20.582318     2A    -20.572811     3A    -20.565785
       4A     -1.382589     5A     -1.374707     6A     -1.356207
       7A     -0.739737     8A     -0.735216     9A     -0.729922
      10A     -0.607347    11A     -0.602469    12A     -0.579721
      13A     -0.527451    14A     -0.523077    15A     -0.510878

  @DF-RHF Final Energy:  -228.17495973936718

   => Energetics <=

    Nuclear Repulsion Energy =             67.5060607043922403
    One-Electron Energy =                -448.5815654377365149
    Two-Electron Energy =                 152.9005449939770642
    Total Energy =                       -228.1749597393671820
 Dipole X            :        -41.2424161           40.0631784           -1.1792376
 Dipole Y            :        121.7622458         -121.0697375            0.6925082
 Dipole Z            :         10.0072025           -9.0281911            0.9790114
 Magnitude           :                                                    1.6818539

    SAPT Results
  --------------------------------------------------------------------------------------------------------
    Electrostatics                -65.90222213 [mEh]     -41.35426873 [kcal/mol]    -173.02626037 [kJ/mol]
      Elst10,r                    -65.70936678 [mEh]     -41.23325017 [kcal/mol]    -172.51991872 [kJ/mol]
      Elst12,r                     -0.19285535 [mEh]      -0.12101856 [kcal/mol]      -0.50634165 [kJ/mol]

    Exchange                       53.59006987 [mEh]      33.62827654 [kcal/mol]     140.70070905 [kJ/mol]
      Exch10                       48.19599861 [mEh]      30.24344573 [kcal/mol]     126.53857692 [kJ/mol]
      Exch10(S^2)                  47.63793379 [mEh]      29.89325476 [kcal/mol]     125.07337793 [kJ/mol]
      Exch11(S^2)                   1.78276406 [mEh]       1.11870134 [kcal/mol]       4.68064640 [kJ/mol]
      Exch12(S^2)                   3.61130719 [mEh]       2.26612947 [kcal/mol]       9.48148572 [kJ/mol]

    Induction                     -23.35407543 [mEh]     -14.65490358 [kcal/mol]     -61.31611659 [kJ/mol]
      Ind20,r                     -42.29236338 [mEh]     -26.53885869 [kcal/mol]    -111.03858476 [kJ/mol]
      Ind22                        -5.44035521 [mEh]      -3.41387444 [kcal/mol]     -14.28365065 [kJ/mol]
      Exch-Ind20,r                 27.78205919 [mEh]      17.43350534 [kcal/mol]      72.94178635 [kJ/mol]
      Exch-Ind22                    3.57379580 [mEh]       2.24259072 [kcal/mol]       9.38299958 [kJ/mol]
      delta HF,r (2)               -6.97721182 [mEh]      -4.37826652 [kcal/mol]     -18.31866711 [kJ/mol]

    Dispersion                    -17.73310096 [mEh]     -11.12768885 [kcal/mol]     -46.55825015 [kJ/mol]
      Disp20                      -20.38239089 [mEh]     -12.79014338 [kcal/mol]     -53.51395991 [kJ/mol]
      Disp21                        1.36651226 [mEh]       0.85749939 [kcal/mol]       3.58777744 [kJ/mol]
      Disp22 (SDQ)                 -0.03851364 [mEh]      -0.02416767 [kcal/mol]      -0.10111754 [kJ/mol]
      Disp22 (T)                   -3.13672546 [mEh]      -1.96832494 [kcal/mol]      -8.23547155 [kJ/mol]
      Est. Disp22 (T)              -3.59756260 [mEh]      -2.25750461 [kcal/mol]      -9.44539930 [kJ/mol]
      Exch-Disp20                   4.91885392 [mEh]       3.08662743 [kcal/mol]      12.91444918 [kJ/mol]

  Total HF                        -39.00088418 [mEh]     -24.47342431 [kcal/mol]    -102.39680731 [kJ/mol]
  Total SAPT0                     -54.46442116 [mEh]     -34.17694026 [kcal/mol]    -142.99631805 [kJ/mol]
  Total SAPT2                     -51.12976467 [mEh]     -32.08441172 [kcal/mol]    -134.24117865 [kJ/mol]
  Total SAPT2+                    -53.39932865 [mEh]     -33.50858462 [kcal/mol]    -140.19991806 [kJ/mol]

  Special recipe for scaled SAPT0 (see Manual):
    Electrostatics sSAPT0         -65.70936678 [mEh]     -41.23325017 [kcal/mol]    -172.51991872 [kJ/mol]
    Exchange sSAPT0                48.19599861 [mEh]      30.24344573 [kcal/mol]     126.53857692 [kJ/mol]
    Induction sSAPT0              -20.49965665 [mEh]     -12.86372875 [kcal/mol]     -53.82184111 [kJ/mol]
    Dispersion sSAPT0             -15.28863504 [mEh]      -9.59376333 [kcal/mol]     -40.14030577 [kJ/mol]
  Total sSAPT0                    -53.30165985 [mEh]     -33.44729653 [kcal/mol]    -139.94348867 [kJ/mol]
  --------------------------------------------------------------------------------------------------------

*** Psi4 exiting successfully. Buy a developer a beer!
