                               Psi4 1.8.2 release

  ==> Input File <==

--------------------------------------------------------------------------
MEMORY 60 GB

molecule dimer {
-1 1
Br     0.000000     0.000000     0.000000
--
0 1
O      2.939852    -1.915562    -0.533554
H      2.801389    -2.458442     0.258757
H      2.150074    -1.360069    -0.546123
O     -0.164365    -1.885111     2.805646
H     -1.005559    -2.298100     3.035198
H     -0.322087    -1.441707     1.915505
O     -2.601132    -1.503362     0.550397
H     -2.065997    -0.913649     0.005071
H     -2.354269    -2.450518     0.300106
O     -0.284074    -1.956940    -2.736350
H     -0.384603    -1.150899    -3.277467
H     -0.378144    -1.636309    -1.835516
O      2.821932     0.987818     1.931994
H      2.380055     0.594532     2.724836
H      2.119721     1.303065     1.324861
O     -1.781380     1.694666    -2.572642
H     -1.551471     1.421173    -1.702222
H     -1.550553     2.618521    -2.578283

units ang
no_reorient
no_com
symmetry c1
}

set {
basis        aug-cc-pVTZ
scf_type     df
}

energy("sapt2+")
--------------------------------------------------------------------------

  //              Dimer HF             //
    Molecular point group: c1
  Charge       = -1
  Multiplicity = 1
  Basis Set: AUG-CC-PVTZ
    Blend: AUG-CC-PVTZ
  Basis Set: (AUG-CC-PVTZ AUX)
    Blend: AUG-CC-PVTZ-JKFIT
  @DF-RHF Final Energy: -3028.93900949730914
    Total Energy =                      -3028.9390094973086889
 Dipole X            :        -14.9768682           13.7670706           -1.2097977
 Dipole Y            :         85.3164301          -83.9044636            1.4119665
 Dipole Z            :          9.5943777           -9.0921319            0.5022458
 Magnitude           :                                                    1.9260090
  //            Monomer A HF           //
    Molecular point group: c1
  Multiplicity = 1
  Basis Set: AUG-CC-PVTZ
    Blend: AUG-CC-PVTZ
  Basis Set: (AUG-CC-PVTZ AUX)
    Blend: AUG-CC-PVTZ-JKFIT
  @DF-RHF Final Energy: -2572.53373833579599
    Total Energy =                      -2572.5337383357955332
  //            Monomer B HF           //
    Molecular point group: c1

    Geometry (in Angstrom), charge = 0, multiplicity = 1:

       Center              X                  Y                   Z               Mass
    ------------   -----------------  -----------------  -----------------  -----------------
      Gh(BR)          0.000000000000     0.000000000000     0.000000000000    78.918337600000
         O            2.939852000000    -1.915562000000    -0.533554000000    15.994914619570
         H            2.801389000000    -2.458442000000     0.258757000000     1.007825032230
         H            2.150074000000    -1.360069000000    -0.546123000000     1.007825032230
         O           -0.164365000000    -1.885111000000     2.805646000000    15.994914619570
         H           -1.005559000000    -2.298100000000     3.035198000000     1.007825032230
         H           -0.322087000000    -1.441707000000     1.915505000000     1.007825032230
         O           -2.601132000000    -1.503362000000     0.550397000000    15.994914619570
         H           -2.065997000000    -0.913649000000     0.005071000000     1.007825032230
         H           -2.354269000000    -2.450518000000     0.300106000000     1.007825032230
         O           -0.284074000000    -1.956940000000    -2.736350000000    15.994914619570
         H           -0.384603000000    -1.150899000000    -3.277467000000     1.007825032230
         H           -0.378144000000    -1.636309000000    -1.835516000000     1.007825032230
         O            2.821932000000     0.987818000000     1.931994000000    15.994914619570
         H            2.380055000000     0.594532000000     2.724836000000     1.007825032230
         H            2.119721000000     1.303065000000     1.324861000000     1.007825032230
         O           -1.781380000000     1.694666000000    -2.572642000000    15.994914619570
         H           -1.551471000000     1.421173000000    -1.702222000000     1.007825032230
         H           -1.550553000000     2.618521000000    -2.578283000000     1.007825032230

  Charge       = 0
  Multiplicity = 1
  Basis Set: AUG-CC-PVTZ
    Blend: AUG-CC-PVTZ
  Basis Set: (AUG-CC-PVTZ AUX)
    Blend: AUG-CC-PVTZ-JKFIT

    Orbital Energies [Eh]
    ---------------------

    Doubly Occupied:

       1A    -20.608952     2A    -20.595262     3A    -20.585538
       4A    -20.585299     5A    -20.576245     6A    -20.566481
       7A     -1.389712     8A     -1.375879     9A     -1.364369
      10A     -1.353464    11A     -1.345992    12A     -1.343489
      13A     -0.751219    14A     -0.744717    15A     -0.726027
      16A     -0.719066    17A     -0.714500    18A     -0.704605
      19A     -0.618957    20A     -0.611577    21A     -0.599068
      22A     -0.596465    23A     -0.583053    24A     -0.578571
      25A     -0.542970    26A     -0.540945    27A     -0.525216
      28A     -0.522572    29A     -0.514521    30A     -0.503899

  @DF-RHF Final Energy:  -456.34344296173651

   => Energetics <=

    Nuclear Repulsion Energy =            223.4843558835921158
    One-Electron Energy =               -1074.0783295657120107
    Two-Electron Energy =                 394.2505307203833809
    Total Energy =                       -456.3434429617365140
 Dipole X            :        -15.1709062           13.7670706           -1.4038357
 Dipole Y            :         84.7937531          -83.9044636            0.8892895
 Dipole Z            :          9.5188441           -9.0921319            0.4267121
 Magnitude           :                                                    1.7157138

    SAPT Results
  --------------------------------------------------------------------------------------------------------
    Electrostatics               -111.22108058 [mEh]     -69.79228174 [kcal/mol]    -292.01090682 [kJ/mol]
      Elst10,r                   -110.75923209 [mEh]     -69.50246744 [kcal/mol]    -290.79832379 [kJ/mol]
      Elst12,r                     -0.46184849 [mEh]      -0.28981430 [kcal/mol]      -1.21258303 [kJ/mol]

    Exchange                       90.04498711 [mEh]      56.50408248 [kcal/mol]     236.41308109 [kJ/mol]
      Exch10                       79.72134693 [mEh]      50.02590046 [kcal/mol]     209.30836753 [kJ/mol]
      Exch10(S^2)                  78.63122274 [mEh]      49.34183720 [kcal/mol]     206.44624686 [kJ/mol]
      Exch11(S^2)                   3.70825358 [mEh]       2.32696425 [kcal/mol]       9.73601842 [kJ/mol]
      Exch12(S^2)                   6.61538661 [mEh]       4.15121777 [kcal/mol]      17.36869514 [kJ/mol]

    Induction                     -34.42969743 [mEh]     -21.60496131 [kcal/mol]     -90.39515814 [kJ/mol]
      Ind20,r                     -67.30320945 [mEh]     -42.23340155 [kcal/mol]    -176.70455207 [kJ/mol]
      Ind22                       -10.42964365 [mEh]      -6.54470020 [kcal/mol]     -27.38302564 [kJ/mol]
      Exch-Ind20,r                 43.81802130 [mEh]      27.49622349 [kcal/mol]     115.04419907 [kJ/mol]
      Exch-Ind22                    6.79026084 [mEh]       4.26095301 [kcal/mol]      17.82782738 [kJ/mol]
      delta HF,r (2)               -7.30512646 [mEh]      -4.58403606 [kcal/mol]     -19.17960688 [kJ/mol]

    Dispersion                    -32.55937531 [mEh]     -20.43131647 [kcal/mol]     -85.48462810 [kJ/mol]
      Disp20                      -37.10550588 [mEh]     -23.28405647 [kcal/mol]     -97.42049226 [kJ/mol]
      Disp21                        2.73995455 [mEh]       1.71934744 [kcal/mol]       7.19374969 [kJ/mol]
      Disp22 (SDQ)                 -0.15443206 [mEh]      -0.09690758 [kcal/mol]      -0.40546132 [kJ/mol]
      Disp22 (T)                   -5.95244830 [mEh]      -3.73521770 [kcal/mol]     -15.62815086 [kJ/mol]
      Est. Disp22 (T)              -6.79543976 [mEh]      -4.26420283 [kcal/mol]     -17.84142463 [kJ/mol]
      Exch-Disp20                   8.75604783 [mEh]       5.49450297 [kcal/mol]      22.98900042 [kJ/mol]

  Total HF                        -61.82819978 [mEh]     -38.79778111 [kcal/mol]    -162.32991615 [kJ/mol]
  Total SAPT0                     -90.17765782 [mEh]     -56.58733460 [kcal/mol]    -236.76140798 [kJ/mol]
  Total SAPT2                     -83.95524893 [mEh]     -52.68271408 [kcal/mol]    -220.42447571 [kJ/mol]
  Total SAPT2+                    -88.16516620 [mEh]     -55.32447705 [kcal/mol]    -231.47761197 [kJ/mol]

  Special recipe for scaled SAPT0 (see Manual):
    Electrostatics sSAPT0        -110.75923209 [mEh]     -69.50246744 [kcal/mol]    -290.79832379 [kJ/mol]
    Exchange sSAPT0                79.72134693 [mEh]      50.02590046 [kcal/mol]     209.30836753 [kJ/mol]
    Induction sSAPT0              -28.94248465 [mEh]     -18.16168331 [kcal/mol]     -75.98848298 [kJ/mol]
    Dispersion sSAPT0             -27.98021071 [mEh]     -17.55784730 [kcal/mol]     -73.46203309 [kJ/mol]
  Total sSAPT0                    -87.96058052 [mEh]     -55.19609759 [kcal/mol]    -230.94047233 [kJ/mol]
  --------------------------------------------------------------------------------------------------------

*** Psi4 exiting successfully. Buy a developer a beer!
