                               Psi4 1.8.2 release

  ==> Input File <==

--------------------------------------------------------------------------
MEMORY 60 GB

molecule dimer {
-1 1
Br     0.000000     0.000000     0.000000
--
0 1
O      1.901186     1.766278     1.976425
H      2.014537     1.299148     2.815032
H      1.226952     1.162183     1.576218
O      1.090075     3.227324    -1.160627
H      2.009569     3.131599    -1.409539
H      0.759246     2.452516    -0.697298
O      1.036749    -1.103900     3.095540
H      0.435450    -1.042285     2.289662
H      1.911055    -1.239199     2.756827
O     -2.629643     2.018819     0.922667
H     -1.841866     1.463958     1.121590
H     -2.314172     2.927331     0.932451
O     -2.583292    -1.610021    -1.363785
H     -2.276380    -1.035941    -0.678244
H     -1.849291    -1.880891    -1.897783

units ang
no_reorient
no_com
symmetry c1
}

set {
basis        aug-cc-pVTZ
scf_type     df
}

energy("sapt2+")
--------------------------------------------------------------------------

  //              Dimer HF             //
    Molecular point group: c1
  Charge       = -1
  Multiplicity = 1
  Basis Set: AUG-CC-PVTZ
    Blend: AUG-CC-PVTZ
  Basis Set: (AUG-CC-PVTZ AUX)
    Blend: AUG-CC-PVTZ-JKFIT
  @DF-RHF Final Energy: -2952.88063620992762
    Total Energy =                      -2952.8806362099276157
 Dipole X            :         19.3828665          -17.7715514            1.6113151
 Dipole Y            :        -79.8914222           78.6625315           -1.2288907
 Dipole Z            :        -65.9074345           65.3291096           -0.5783249
 Magnitude           :                                                    2.1073605
  //            Monomer A HF           //
    Molecular point group: c1
  Multiplicity = 1
  Basis Set: AUG-CC-PVTZ
    Blend: AUG-CC-PVTZ
  Basis Set: (AUG-CC-PVTZ AUX)
    Blend: AUG-CC-PVTZ-JKFIT
  @DF-RHF Final Energy: -2572.53372684994793
    Total Energy =                      -2572.5337268499479251
  //            Monomer B HF           //
    Molecular point group: c1

    Geometry (in Angstrom), charge = 0, multiplicity = 1:

       Center              X                  Y                   Z               Mass
    ------------   -----------------  -----------------  -----------------  -----------------
      Gh(BR)          0.000000000000     0.000000000000     0.000000000000    78.918337600000
         O            1.901186000000     1.766278000000     1.976425000000    15.994914619570
         H            2.014537000000     1.299148000000     2.815032000000     1.007825032230
         H            1.226952000000     1.162183000000     1.576218000000     1.007825032230
         O            1.090075000000     3.227324000000    -1.160627000000    15.994914619570
         H            2.009569000000     3.131599000000    -1.409539000000     1.007825032230
         H            0.759246000000     2.452516000000    -0.697298000000     1.007825032230
         O            1.036749000000    -1.103900000000     3.095540000000    15.994914619570
         H            0.435450000000    -1.042285000000     2.289662000000     1.007825032230
         H            1.911055000000    -1.239199000000     2.756827000000     1.007825032230
         O           -2.629643000000     2.018819000000     0.922667000000    15.994914619570
         H           -1.841866000000     1.463958000000     1.121590000000     1.007825032230
         H           -2.314172000000     2.927331000000     0.932451000000     1.007825032230
         O           -2.583292000000    -1.610021000000    -1.363785000000    15.994914619570
         H           -2.276380000000    -1.035941000000    -0.678244000000     1.007825032230
         H           -1.849291000000    -1.880891000000    -1.897783000000     1.007825032230

  Charge       = 0
  Multiplicity = 1
  Basis Set: AUG-CC-PVTZ
    Blend: AUG-CC-PVTZ
  Basis Set: (AUG-CC-PVTZ AUX)
    Blend: AUG-CC-PVTZ-JKFIT

    Orbital Energies [Eh]
    ---------------------

    Doubly Occupied:

       1A    -20.605936     2A    -20.590772     3A    -20.582631
       4A    -20.570802     5A    -20.568540     6A     -1.380851
       7A     -1.365362     8A     -1.363392     9A     -1.358103
      10A     -1.351644    11A     -0.746486    12A     -0.740562
      13A     -0.735813    14A     -0.724743    15A     -0.711705
      16A     -0.618365    17A     -0.611067    18A     -0.592427
      19A     -0.584507    20A     -0.574305    21A     -0.543017
      22A     -0.528104    23A     -0.521740    24A     -0.516938
      25A     -0.511966

  @DF-RHF Final Energy:  -380.28730062506963

   => Energetics <=

    Nuclear Repulsion Energy =            159.7566112689941065
    One-Electron Energy =                -842.0882604994528720
    Two-Electron Energy =                 302.0443486053891320
    Total Energy =                       -380.2873006250696335
 Dipole X            :         19.4351286          -17.7715514            1.6635772
 Dipole Y            :        -79.5258410           78.6625315           -0.8633095
 Dipole Z            :        -65.3057032           65.3291096            0.0234064
 Magnitude           :                                                    1.8743907

    SAPT Results
  --------------------------------------------------------------------------------------------------------
    Electrostatics                -94.64221853 [mEh]     -59.38888874 [kcal/mol]    -248.48311051 [kJ/mol]
      Elst10,r                    -94.70763441 [mEh]     -59.42993783 [kcal/mol]    -248.65485989 [kJ/mol]
      Elst12,r                      0.06541589 [mEh]       0.04104909 [kcal/mol]       0.17174939 [kJ/mol]

    Exchange                       70.72383798 [mEh]      44.37987835 [kcal/mol]     185.68541104 [kJ/mol]
      Exch10                       62.53591510 [mEh]      39.24187917 [kcal/mol]     164.18802246 [kJ/mol]
      Exch10(S^2)                  61.75749641 [mEh]      38.75341407 [kcal/mol]     162.14428449 [kJ/mol]
      Exch11(S^2)                   3.08999450 [mEh]       1.93900082 [kcal/mol]       8.11277945 [kJ/mol]
      Exch12(S^2)                   5.09792838 [mEh]       3.19899836 [kcal/mol]      13.38460913 [kJ/mol]

    Induction                     -30.31363855 [mEh]     -19.02209537 [kcal/mol]     -79.58844704 [kJ/mol]
      Ind20,r                     -53.99990513 [mEh]     -33.88545205 [kcal/mol]    -141.77673138 [kJ/mol]
      Ind22                        -7.66591478 [mEh]      -4.81043415 [kcal/mol]     -20.12685649 [kJ/mol]
      Exch-Ind20,r                 33.73652221 [mEh]      21.16998730 [kcal/mol]      88.57522686 [kJ/mol]
      Exch-Ind22                    4.78929183 [mEh]       3.00532599 [kcal/mol]      12.57428396 [kJ/mol]
      delta HF,r (2)               -7.17363268 [mEh]      -4.50152247 [kcal/mol]     -18.83437000 [kJ/mol]

    Dispersion                    -26.49139591 [mEh]     -16.62360191 [kcal/mol]     -69.55315037 [kJ/mol]
      Disp20                      -29.91494188 [mEh]     -18.77190944 [kcal/mol]     -78.54166908 [kJ/mol]
      Disp21                        2.07443923 [mEh]       1.30173027 [kcal/mol]       5.44643945 [kJ/mol]
      Disp22 (SDQ)                 -0.09963099 [mEh]      -0.06251939 [kcal/mol]      -0.26158113 [kJ/mol]
      Disp22 (T)                   -4.78073416 [mEh]      -2.99995598 [kcal/mol]     -12.55181580 [kJ/mol]
      Est. Disp22 (T)              -5.48754733 [mEh]      -3.44348794 [kcal/mol]     -14.40755353 [kJ/mol]
      Exch-Disp20                   6.93628506 [mEh]       4.35258459 [kcal/mol]      18.21121392 [kJ/mol]

  Total HF                        -59.60873491 [mEh]     -37.40504588 [kcal/mol]    -156.50271194 [kJ/mol]
  Total SAPT0                     -82.58739173 [mEh]     -51.82437072 [kcal/mol]    -216.83316710 [kJ/mol]
  Total SAPT2                     -77.21067591 [mEh]     -48.45043061 [kcal/mol]    -202.71660167 [kJ/mol]
  Total SAPT2+                    -80.72341500 [mEh]     -50.65470767 [kcal/mol]    -211.93929688 [kJ/mol]

  Special recipe for scaled SAPT0 (see Manual):
    Electrostatics sSAPT0         -94.70763441 [mEh]     -59.42993783 [kcal/mol]    -248.65485989 [kJ/mol]
    Exchange sSAPT0                62.53591510 [mEh]      39.24187917 [kcal/mol]     164.18802246 [kJ/mol]
    Induction sSAPT0              -26.14517872 [mEh]     -16.40634734 [kcal/mol]     -68.64415728 [kJ/mol]
    Dispersion sSAPT0             -22.71305301 [mEh]     -14.25265594 [kcal/mol]     -59.63311246 [kJ/mol]
  Total sSAPT0                    -81.02995105 [mEh]     -50.84706194 [kcal/mol]    -212.74410717 [kJ/mol]
  --------------------------------------------------------------------------------------------------------

*** Psi4 exiting successfully. Buy a developer a beer!
