                               Psi4 1.8.2 release

  ==> Input File <==

--------------------------------------------------------------------------
MEMORY 60 GB

molecule dimer {
-1 1
Br     0.000000     0.000000     0.000000
--
0 1
O     -1.375620     3.047926    -1.337998
H     -0.877399     3.716957    -0.861773
H     -0.951090     2.166142    -1.171486
O      2.709632    -1.863457     0.517570
H      2.540301    -2.686032     0.113931
H      1.960279    -1.257251     0.338176
O     -1.907275    -2.478936    -1.045372
H     -1.364393    -1.760338    -0.788272
H     -2.530730    -2.108684    -1.652647

units ang
no_reorient
no_com
symmetry c1
}

set {
basis        aug-cc-pVTZ
scf_type     df
}

energy("sapt2+")
--------------------------------------------------------------------------

  //              Dimer HF             //
    Molecular point group: c1
  Charge       = -1
  Multiplicity = 1
  Basis Set: AUG-CC-PVTZ
    Blend: AUG-CC-PVTZ
  Basis Set: (AUG-CC-PVTZ AUX)
    Blend: AUG-CC-PVTZ-JKFIT
  @DF-RHF Final Energy: -2800.75241130651193
    Total Energy =                      -2800.7524113065119309
 Dipole X            :         10.9283458          -10.9776761           -0.0493302
 Dipole Y            :         23.8537899          -23.2151758            0.6386141
 Dipole Z            :         35.8783176          -35.8074207            0.0708969
 Magnitude           :                                                    0.6444283
  //            Monomer A HF           //
    Molecular point group: c1
  Multiplicity = 1
  Basis Set: AUG-CC-PVTZ
    Blend: AUG-CC-PVTZ
  Basis Set: (AUG-CC-PVTZ AUX)
    Blend: AUG-CC-PVTZ-JKFIT
  @DF-RHF Final Energy: -2572.53370873754920
    Total Energy =                      -2572.5337087375487499
  //            Monomer B HF           //
    Molecular point group: c1

    Geometry (in Angstrom), charge = 0, multiplicity = 1:

       Center              X                  Y                   Z               Mass
    ------------   -----------------  -----------------  -----------------  -----------------
      Gh(BR)          0.000000000000     0.000000000000     0.000000000000    78.918337600000
         O           -1.375620000000     3.047926000000    -1.337998000000    15.994914619570
         H           -0.877399000000     3.716957000000    -0.861773000000     1.007825032230
         H           -0.951090000000     2.166142000000    -1.171486000000     1.007825032230
         O            2.709632000000    -1.863457000000     0.517570000000    15.994914619570
         H            2.540301000000    -2.686032000000     0.113931000000     1.007825032230
         H            1.960279000000    -1.257251000000     0.338176000000     1.007825032230
         O           -1.907275000000    -2.478936000000    -1.045372000000    15.994914619570
         H           -1.364393000000    -1.760338000000    -0.788272000000     1.007825032230
         H           -2.530730000000    -2.108684000000    -1.652647000000     1.007825032230

  Charge       = 0
  Multiplicity = 1
  Basis Set: AUG-CC-PVTZ
    Blend: AUG-CC-PVTZ
  Basis Set: (AUG-CC-PVTZ AUX)
    Blend: AUG-CC-PVTZ-JKFIT

    Orbital Energies [Eh]
    ---------------------

    Doubly Occupied:

       1A    -20.578924     2A    -20.574727     3A    -20.570507
       4A     -1.372345     5A     -1.357084     6A     -1.351535
       7A     -0.738325     8A     -0.733021     9A     -0.724490
      10A     -0.597507    11A     -0.583809    12A     -0.581488
      13A     -0.522054    14A     -0.517650    15A     -0.514669

  @DF-RHF Final Energy:  -228.17700344786061

   => Energetics <=

    Nuclear Repulsion Energy =             56.4983217531646815
    One-Electron Energy =                -426.7143781414615091
    Two-Electron Energy =                 142.0390529404361928
    Total Energy =                       -228.1770034478606135
 Dipole X            :         10.9087204          -10.9776761           -0.0689556
 Dipole Y            :         23.6521346          -23.2151758            0.4369587
 Dipole Z            :         35.6016604          -35.8074207           -0.2057602
 Magnitude           :                                                    0.4878781

    SAPT Results
  --------------------------------------------------------------------------------------------------------
    Electrostatics                -63.84819218 [mEh]     -40.06534547 [kcal/mol]    -167.63340547 [kJ/mol]
      Elst10,r                    -63.83646137 [mEh]     -40.05798428 [kcal/mol]    -167.60260623 [kJ/mol]
      Elst12,r                     -0.01173081 [mEh]      -0.00736120 [kcal/mol]      -0.03079924 [kJ/mol]

    Exchange                       46.96713731 [mEh]      29.47232362 [kcal/mol]     123.31220201 [kJ/mol]
      Exch10                       41.96505065 [mEh]      26.33346685 [kcal/mol]     110.17922529 [kJ/mol]
      Exch10(S^2)                  41.57741763 [mEh]      26.09022346 [kcal/mol]     109.16149494 [kJ/mol]
      Exch11(S^2)                   1.92333327 [mEh]       1.20690985 [kcal/mol]       5.04971081 [kJ/mol]
      Exch12(S^2)                   3.07875339 [mEh]       1.93194692 [kcal/mol]       8.08326591 [kJ/mol]

    Induction                     -21.50809964 [mEh]     -13.49653629 [kcal/mol]     -56.46950782 [kJ/mol]
      Ind20,r                     -36.67895939 [mEh]     -23.01639450 [kcal/mol]     -96.30059460 [kJ/mol]
      Ind22                        -4.46643221 [mEh]      -2.80272853 [kcal/mol]     -11.72661616 [kJ/mol]
      Exch-Ind20,r                 22.87937029 [mEh]      14.35702161 [kcal/mol]      60.06977841 [kJ/mol]
      Exch-Ind22                    2.78604296 [mEh]       1.74826835 [kcal/mol]       7.31475478 [kJ/mol]
      delta HF,r (2)               -6.02812128 [mEh]      -3.78270321 [kcal/mol]     -15.82683025 [kJ/mol]

    Dispersion                    -16.45068190 [mEh]     -10.32295874 [kcal/mol]     -43.19125939 [kJ/mol]
      Disp20                      -18.60282708 [mEh]     -11.67345023 [kcal/mol]     -48.84171576 [kJ/mol]
      Disp21                        1.05620796 [mEh]       0.66278050 [kcal/mol]       2.77307362 [kJ/mol]
      Disp22 (SDQ)                  0.05326636 [mEh]       0.03342514 [kcal/mol]       0.13985080 [kJ/mol]
      Disp22 (T)                   -2.84902563 [mEh]      -1.78779058 [kcal/mol]      -7.48011577 [kJ/mol]
      Est. Disp22 (T)              -3.29310073 [mEh]      -2.06645191 [kcal/mol]      -8.64603478 [kJ/mol]
      Exch-Disp20                   4.33577159 [mEh]       2.72073775 [kcal/mol]      11.38356674 [kJ/mol]

  Total HF                        -41.69912110 [mEh]     -26.16659354 [kcal/mol]    -109.48102737 [kJ/mol]
  Total SAPT0                     -55.96617659 [mEh]     -35.11930602 [kcal/mol]    -146.93917639 [kJ/mol]
  Total SAPT2                     -52.65621000 [mEh]     -33.04227063 [kcal/mol]    -138.24886030 [kJ/mol]
  Total SAPT2+                    -54.83983641 [mEh]     -34.41251689 [kcal/mol]    -143.98197067 [kJ/mol]

  Special recipe for scaled SAPT0 (see Manual):
    Electrostatics sSAPT0         -63.83646137 [mEh]     -40.05798428 [kcal/mol]    -167.60260623 [kJ/mol]
    Exchange sSAPT0                41.96505065 [mEh]      26.33346685 [kcal/mol]     110.17922529 [kJ/mol]
    Induction sSAPT0              -19.18180147 [mEh]     -12.03676214 [kcal/mol]     -50.36181281 [kJ/mol]
    Dispersion sSAPT0             -14.14465205 [mEh]      -8.87590317 [kcal/mol]     -37.13677885 [kJ/mol]
  Total sSAPT0                    -55.19786424 [mEh]     -34.63718274 [kcal/mol]    -144.92197259 [kJ/mol]
  --------------------------------------------------------------------------------------------------------

*** Psi4 exiting successfully. Buy a developer a beer!
