                               Psi4 1.8.2 release

  ==> Input File <==

--------------------------------------------------------------------------
MEMORY 60 GB

molecule dimer {
-1 1
Br     0.000000     0.000000     0.000000
--
0 1
O     -1.772441    -1.013978     2.474033
H     -1.574978    -0.449582     3.217609
H     -1.403679    -0.590186     1.642038
O      0.153443     3.026345    -1.370826
H     -0.355384     2.308360    -1.026650
H     -0.493762     3.710273    -1.432334
O     -2.091719     2.479956     1.054046
H     -1.732622     2.926053     1.826747
H     -1.314715     1.926701     0.771278
O     -2.844312    -0.096528    -2.039101
H     -2.475962     0.417129    -2.754453
H     -2.104157    -0.194575    -1.466153
O      0.017861    -2.734789    -2.364762
H      0.784096    -3.289794    -2.529533
H      0.337217    -2.049244    -1.765328
O      2.661036     0.539110    -2.156861
H      2.239767     1.400442    -1.867415
H      2.677201    -0.043631    -1.356634

units ang
no_reorient
no_com
symmetry c1
}

set {
basis        aug-cc-pVTZ
scf_type     df
}

energy("sapt2+")
--------------------------------------------------------------------------

  //              Dimer HF             //
    Molecular point group: c1
  Charge       = -1
  Multiplicity = 1
  Basis Set: AUG-CC-PVTZ
    Blend: AUG-CC-PVTZ
  Basis Set: (AUG-CC-PVTZ AUX)
    Blend: AUG-CC-PVTZ-JKFIT
  @DF-RHF Final Energy: -3028.93688764744638
    Total Energy =                      -3028.9368876474463832
 Dipole X            :         70.7369062          -68.8352281            1.9016781
 Dipole Y            :        -43.8621636           44.7352485            0.8730849
 Dipole Z            :         80.7048996          -79.3091523            1.3957473
 Magnitude           :                                                    2.5153066
  //            Monomer A HF           //
    Molecular point group: c1
  Multiplicity = 1
  Basis Set: AUG-CC-PVTZ
    Blend: AUG-CC-PVTZ
  Basis Set: (AUG-CC-PVTZ AUX)
    Blend: AUG-CC-PVTZ-JKFIT
  @DF-RHF Final Energy: -2572.53373697613461
    Total Energy =                      -2572.5337369761346054
  //            Monomer B HF           //
    Molecular point group: c1

    Geometry (in Angstrom), charge = 0, multiplicity = 1:

       Center              X                  Y                   Z               Mass
    ------------   -----------------  -----------------  -----------------  -----------------
      Gh(BR)          0.000000000000     0.000000000000     0.000000000000    78.918337600000
         O           -1.772441000000    -1.013978000000     2.474033000000    15.994914619570
         H           -1.574978000000    -0.449582000000     3.217609000000     1.007825032230
         H           -1.403679000000    -0.590186000000     1.642038000000     1.007825032230
         O            0.153443000000     3.026345000000    -1.370826000000    15.994914619570
         H           -0.355384000000     2.308360000000    -1.026650000000     1.007825032230
         H           -0.493762000000     3.710273000000    -1.432334000000     1.007825032230
         O           -2.091719000000     2.479956000000     1.054046000000    15.994914619570
         H           -1.732622000000     2.926053000000     1.826747000000     1.007825032230
         H           -1.314715000000     1.926701000000     0.771278000000     1.007825032230
         O           -2.844312000000    -0.096528000000    -2.039101000000    15.994914619570
         H           -2.475962000000     0.417129000000    -2.754453000000     1.007825032230
         H           -2.104157000000    -0.194575000000    -1.466153000000     1.007825032230
         O            0.017861000000    -2.734789000000    -2.364762000000    15.994914619570
         H            0.784096000000    -3.289794000000    -2.529533000000     1.007825032230
         H            0.337217000000    -2.049244000000    -1.765328000000     1.007825032230
         O            2.661036000000     0.539110000000    -2.156861000000    15.994914619570
         H            2.239767000000     1.400442000000    -1.867415000000     1.007825032230
         H            2.677201000000    -0.043631000000    -1.356634000000     1.007825032230

  Charge       = 0
  Multiplicity = 1
  Basis Set: AUG-CC-PVTZ
    Blend: AUG-CC-PVTZ
  Basis Set: (AUG-CC-PVTZ AUX)
    Blend: AUG-CC-PVTZ-JKFIT

    Orbital Energies [Eh]
    ---------------------

    Doubly Occupied:

       1A    -20.604031     2A    -20.595374     3A    -20.581468
       4A    -20.581322     5A    -20.572301     6A    -20.569232
       7A     -1.392944     8A     -1.377340     9A     -1.362920
      10A     -1.354888    11A     -1.352554    12A     -1.342170
      13A     -0.753043    14A     -0.732281    15A     -0.725767
      16A     -0.721433    17A     -0.719044    18A     -0.708639
      19A     -0.625614    20A     -0.617385    21A     -0.593168
      22A     -0.587258    23A     -0.584285    24A     -0.582244
      25A     -0.546914    26A     -0.536844    27A     -0.518683
      28A     -0.516207    29A     -0.513719    30A     -0.512745

  @DF-RHF Final Energy:  -456.34292896930896

   => Energetics <=

    Nuclear Repulsion Energy =            226.2115850441410032
    One-Electron Energy =               -1079.5453889099399021
    Two-Electron Energy =                 396.9908748964899701
    Total Energy =                       -456.3429289693089572
 Dipole X            :         70.1959412          -68.8352281            1.3607131
 Dipole Y            :        -43.5210057           44.7352485            1.2142428
 Dipole Z            :         80.6404654          -79.3091523            1.3313131
 Magnitude           :                                                    2.2579460

    SAPT Results
  --------------------------------------------------------------------------------------------------------
    Electrostatics               -101.54860740 [mEh]     -63.72271319 [kcal/mol]    -266.61583198 [kJ/mol]
      Elst10,r                   -101.09758688 [mEh]     -63.43969354 [kcal/mol]    -265.43167779 [kJ/mol]
      Elst12,r                     -0.45102051 [mEh]      -0.28301965 [kcal/mol]      -1.18415420 [kJ/mol]

    Exchange                       82.24294717 [mEh]      51.60822850 [kcal/mol]     215.92882806 [kJ/mol]
      Exch10                       72.83106205 [mEh]      45.70218142 [kcal/mol]     191.21792707 [kJ/mol]
      Exch10(S^2)                  71.90077193 [mEh]      45.11841556 [kcal/mol]     188.77545068 [kJ/mol]
      Exch11(S^2)                   3.53974295 [mEh]       2.22122223 [kcal/mol]       9.29359383 [kJ/mol]
      Exch12(S^2)                   5.87214218 [mEh]       3.68482485 [kcal/mol]      15.41730717 [kJ/mol]

    Induction                     -35.30334100 [mEh]     -22.15318094 [kcal/mol]     -92.68890903 [kJ/mol]
      Ind20,r                     -62.71701382 [mEh]     -39.35552034 [kcal/mol]    -164.66349709 [kJ/mol]
      Ind22                        -8.82518192 [mEh]      -5.53788526 [kcal/mol]     -23.17051194 [kJ/mol]
      Exch-Ind20,r                 38.92296184 [mEh]      24.42452730 [kcal/mol]     102.19222223 [kJ/mol]
      Exch-Ind22                    5.47701809 [mEh]       3.43688074 [kcal/mol]      14.37990901 [kJ/mol]
      delta HF,r (2)               -8.16112520 [mEh]      -5.12118338 [kcal/mol]     -21.42703125 [kJ/mol]

    Dispersion                    -30.92683078 [mEh]     -19.40687931 [kcal/mol]     -81.19838302 [kJ/mol]
      Disp20                      -35.06625143 [mEh]     -22.00440498 [kcal/mol]     -92.06643044 [kJ/mol]
      Disp21                        2.60498349 [mEh]       1.63465182 [kcal/mol]       6.83938322 [kJ/mol]
      Disp22 (SDQ)                 -0.07824900 [mEh]      -0.04910199 [kcal/mol]      -0.20544273 [kJ/mol]
      Disp22 (T)                   -5.59600987 [mEh]      -3.51154921 [kcal/mol]     -14.69232189 [kJ/mol]
      Est. Disp22 (T)              -6.41450083 [mEh]      -4.02516004 [kcal/mol]     -16.84126961 [kJ/mol]
      Exch-Disp20                   8.02718699 [mEh]       5.03713588 [kcal/mol]      21.07537654 [kJ/mol]

  Total HF                        -60.22170200 [mEh]     -37.78968853 [kcal/mol]    -158.11205683 [kJ/mol]
  Total SAPT0                     -87.26076644 [mEh]     -54.75695763 [kcal/mol]    -229.10311072 [kJ/mol]
  Total SAPT2                     -81.64806566 [mEh]     -51.23493472 [kcal/mol]    -214.36696686 [kJ/mol]
  Total SAPT2+                    -85.53583200 [mEh]     -53.67454493 [kcal/mol]    -224.57429598 [kJ/mol]

  Special recipe for scaled SAPT0 (see Manual):
    Electrostatics sSAPT0        -101.09758688 [mEh]     -63.43969354 [kcal/mol]    -265.43167779 [kJ/mol]
    Exchange sSAPT0                72.83106205 [mEh]      45.70218142 [kcal/mol]     191.21792707 [kJ/mol]
    Induction sSAPT0              -30.42472766 [mEh]     -19.09180484 [kcal/mol]     -79.88011147 [kJ/mol]
    Dispersion sSAPT0             -26.72343572 [mEh]     -16.76920909 [kcal/mol]     -70.16237082 [kJ/mol]
  Total sSAPT0                    -85.41468821 [mEh]     -53.59852605 [kcal/mol]    -224.25623301 [kJ/mol]
  --------------------------------------------------------------------------------------------------------

*** Psi4 exiting successfully. Buy a developer a beer!
