                               Psi4 1.8.2 release

  ==> Input File <==

--------------------------------------------------------------------------
MEMORY 60 GB

molecule dimer {
-1 1
Br     0.000000     0.000000     0.000000
--
0 1
O      2.794095    -1.387479     0.567346
H      1.955440    -0.895211     0.196524
H      3.481853    -0.702595     0.669128
O      2.335776     1.864406     0.831723
H      1.699945     1.187957     0.609791
H      1.817179     2.598588     1.156693
O     -0.357779     0.030054     3.245802
H     -0.127128     0.352128     2.389975
H     -0.011989     0.692795     3.899278

units ang
no_reorient
no_com
symmetry c1
}

set {
basis        aug-cc-pVTZ
scf_type     df
}

energy("sapt2+")
--------------------------------------------------------------------------

  //              Dimer HF             //
    Molecular point group: c1
  Charge       = -1
  Multiplicity = 1
  Basis Set: AUG-CC-PVTZ
    Blend: AUG-CC-PVTZ
  Basis Set: (AUG-CC-PVTZ AUX)
    Blend: AUG-CC-PVTZ-JKFIT
  @DF-RHF Final Energy: -2800.73029026138965
    Total Energy =                      -2800.7302902613892002
 Dipole X            :        -90.0887044           88.8020781           -1.2866263
 Dipole Y            :        -12.5369134           13.7751775            1.2382641
 Dipole Z            :        -87.8538364           87.0792545           -0.7745820
 Magnitude           :                                                    1.9464538
  //            Monomer A HF           //
    Molecular point group: c1
  Multiplicity = 1
  Basis Set: AUG-CC-PVTZ
    Blend: AUG-CC-PVTZ
  Basis Set: (AUG-CC-PVTZ AUX)
    Blend: AUG-CC-PVTZ-JKFIT
  @DF-RHF Final Energy: -2572.53371741291585
    Total Energy =                      -2572.5337174129158484
  //            Monomer B HF           //
    Molecular point group: c1

    Geometry (in Angstrom), charge = 0, multiplicity = 1:

       Center              X                  Y                   Z               Mass
    ------------   -----------------  -----------------  -----------------  -----------------
      Gh(BR)          0.000000000000     0.000000000000     0.000000000000    78.918337600000
         O            2.794095000000    -1.387479000000     0.567346000000    15.994914619570
         H            1.955440000000    -0.895211000000     0.196524000000     1.007825032230
         H            3.481853000000    -0.702595000000     0.669128000000     1.007825032230
         O            2.335776000000     1.864406000000     0.831723000000    15.994914619570
         H            1.699945000000     1.187957000000     0.609791000000     1.007825032230
         H            1.817179000000     2.598588000000     1.156693000000     1.007825032230
         O           -0.357779000000     0.030054000000     3.245802000000    15.994914619570
         H           -0.127128000000     0.352128000000     2.389975000000     1.007825032230
         H           -0.011989000000     0.692795000000     3.899278000000     1.007825032230

  Charge       = 0
  Multiplicity = 1
  Basis Set: AUG-CC-PVTZ
    Blend: AUG-CC-PVTZ
  Basis Set: (AUG-CC-PVTZ AUX)
    Blend: AUG-CC-PVTZ-JKFIT

    Orbital Energies [Eh]
    ---------------------

    Doubly Occupied:

       1A    -20.593041     2A    -20.577020     3A    -20.576246
       4A     -1.381332     5A     -1.355468     6A     -1.330770
       7A     -0.748842     8A     -0.724303     9A     -0.695640
      10A     -0.610958    11A     -0.586322    12A     -0.573648
      13A     -0.536991    14A     -0.516721    15A     -0.507366

  @DF-RHF Final Energy:  -228.16508385151735

   => Energetics <=

    Nuclear Repulsion Energy =             69.3879366188760116
    One-Electron Energy =                -452.4767003287316811
    Two-Electron Energy =                 154.9236798583383461
    Total Energy =                       -228.1650838515173518
 Dipole X            :        -89.2002952           88.8020781           -0.3982171
 Dipole Y            :        -12.3090190           13.7751775            1.4661585
 Dipole Z            :        -87.2699794           87.0792545           -0.1907249
 Magnitude           :                                                    1.5312000

    SAPT Results
  --------------------------------------------------------------------------------------------------------
    Electrostatics                -76.22717776 [mEh]     -47.83327621 [kcal/mol]    -200.13442765 [kJ/mol]
      Elst10,r                    -74.62784271 [mEh]     -46.82967831 [kcal/mol]    -195.93537405 [kJ/mol]
      Elst12,r                     -1.59933505 [mEh]      -1.00359790 [kcal/mol]      -4.19905360 [kJ/mol]

    Exchange                       85.13948515 [mEh]      53.42583352 [kcal/mol]     223.53368745 [kJ/mol]
      Exch10                       77.36855530 [mEh]      48.54950142 [kcal/mol]     203.13111395 [kJ/mol]
      Exch10(S^2)                  75.58564520 [mEh]      47.43070845 [kcal/mol]     198.45008414 [kJ/mol]
      Exch11(S^2)                   2.80192264 [mEh]       1.75823300 [kcal/mol]       7.35644689 [kJ/mol]
      Exch12(S^2)                   4.96900720 [mEh]       3.11809909 [kcal/mol]      13.04612661 [kJ/mol]

    Induction                     -37.02893348 [mEh]     -23.23600656 [kcal/mol]     -97.21945146 [kJ/mol]
      Ind20,r                     -66.26893608 [mEh]     -41.58438520 [kcal/mol]    -173.98906770 [kJ/mol]
      Ind22                        -8.25980629 [mEh]      -5.18310670 [kcal/mol]     -21.68611842 [kJ/mol]
      Exch-Ind20,r                 43.81058951 [mEh]      27.49155997 [kcal/mol]     115.02468690 [kJ/mol]
      Exch-Ind22                    5.46058235 [mEh]       3.42656716 [kcal/mol]      14.33675699 [kJ/mol]
      delta HF,r (2)              -11.77136297 [mEh]      -7.38664178 [kcal/mol]     -30.90570922 [kJ/mol]

    Dispersion                    -23.91483860 [mEh]     -15.00678778 [kcal/mol]     -62.78840009 [kJ/mol]
      Disp20                      -28.40952770 [mEh]     -17.82724777 [kcal/mol]     -74.58920469 [kJ/mol]
      Disp21                        2.30378022 [mEh]       1.44564391 [kcal/mol]       6.04857413 [kJ/mol]
      Disp22 (SDQ)                  0.09816408 [mEh]       0.06159889 [kcal/mol]       0.25772977 [kJ/mol]
      Disp22 (T)                   -4.37979965 [mEh]      -2.74836577 [kcal/mol]     -11.49916239 [kJ/mol]
      Est. Disp22 (T)              -4.94648272 [mEh]      -3.10396477 [kcal/mol]     -12.98698859 [kJ/mol]
      Exch-Disp20                   7.03922751 [mEh]       4.41718195 [kcal/mol]      18.48148929 [kJ/mol]

  Total HF                        -31.48899696 [mEh]     -19.75964391 [kcal/mol]     -82.67435012 [kJ/mol]
  Total SAPT0                     -52.85929714 [mEh]     -33.16970973 [kcal/mol]    -138.78206552 [kJ/mol]
  Total SAPT2                     -49.48692628 [mEh]     -31.05351507 [kcal/mol]    -129.92790705 [kJ/mol]
  Total SAPT2+                    -52.03146470 [mEh]     -32.65023703 [kcal/mol]    -136.60859174 [kJ/mol]

  Special recipe for scaled SAPT0 (see Manual):
    Electrostatics sSAPT0         -74.62784271 [mEh]     -46.82967831 [kcal/mol]    -195.93537405 [kJ/mol]
    Exchange sSAPT0                77.36855530 [mEh]      48.54950142 [kcal/mol]     203.13111395 [kJ/mol]
    Induction sSAPT0              -31.05580167 [mEh]     -19.48780976 [kcal/mol]     -81.53699605 [kJ/mol]
    Dispersion sSAPT0             -20.86033536 [mEh]     -13.09005806 [kcal/mol]     -54.76880293 [kJ/mol]
  Total sSAPT0                    -49.17542444 [mEh]     -30.85804471 [kcal/mol]    -129.11005908 [kJ/mol]
  --------------------------------------------------------------------------------------------------------

*** Psi4 exiting successfully. Buy a developer a beer!
