                               Psi4 1.8.2 release

  ==> Input File <==

--------------------------------------------------------------------------
MEMORY 60 GB

molecule dimer {
-1 1
Br     0.000000     0.000000     0.000000
--
0 1
O     -2.781246     1.510084     1.569551
H     -2.072540     1.009944     1.041255
H     -3.635131     1.011783     1.573126
O     -1.440121    -2.331353    -1.915099
H     -1.006754    -1.730021    -1.255599
H     -1.064572    -3.197794    -1.969547
O     -3.247932     0.467714    -1.516885
H     -2.362877     0.540347    -1.151819
H     -3.475365    -0.447640    -1.620254
O      0.031526     3.421465    -0.300243
H     -0.878325     3.780621    -0.011616
H      0.054833     2.497967    -0.083518
O      0.960104     0.920447    -2.955719
H      0.402808     0.917896    -2.160409
H      0.692381     1.632242    -3.631367

units ang
no_reorient
no_com
symmetry c1
}

set {
basis        aug-cc-pVTZ
scf_type     df
}

energy("sapt2+")
--------------------------------------------------------------------------

  //              Dimer HF             //
    Molecular point group: c1
  Charge       = -1
  Multiplicity = 1
  Basis Set: AUG-CC-PVTZ
    Blend: AUG-CC-PVTZ
  Basis Set: (AUG-CC-PVTZ AUX)
    Blend: AUG-CC-PVTZ-JKFIT
  @DF-RHF Final Energy: -2952.86453287260201
    Total Energy =                      -2952.8645328726024673
 Dipole X            :        123.6568353         -123.1475821            0.5092532
 Dipole Y            :        -73.3235778           71.6625740           -1.6610039
 Dipole Z            :         95.9947679          -94.8962030            1.0985649
 Magnitude           :                                                    2.0555091
  //            Monomer A HF           //
    Molecular point group: c1
  Multiplicity = 1
  Basis Set: AUG-CC-PVTZ
    Blend: AUG-CC-PVTZ
  Basis Set: (AUG-CC-PVTZ AUX)
    Blend: AUG-CC-PVTZ-JKFIT
  @DF-RHF Final Energy: -2572.53373099875444
    Total Energy =                      -2572.5337309987544359
  //            Monomer B HF           //
    Molecular point group: c1

    Geometry (in Angstrom), charge = 0, multiplicity = 1:

       Center              X                  Y                   Z               Mass
    ------------   -----------------  -----------------  -----------------  -----------------
      Gh(BR)          0.000000000000     0.000000000000     0.000000000000    78.918337600000
         O           -2.781246000000     1.510084000000     1.569551000000    15.994914619570
         H           -2.072540000000     1.009944000000     1.041255000000     1.007825032230
         H           -3.635131000000     1.011783000000     1.573126000000     1.007825032230
         O           -1.440121000000    -2.331353000000    -1.915099000000    15.994914619570
         H           -1.006754000000    -1.730021000000    -1.255599000000     1.007825032230
         H           -1.064572000000    -3.197794000000    -1.969547000000     1.007825032230
         O           -3.247932000000     0.467714000000    -1.516885000000    15.994914619570
         H           -2.362877000000     0.540347000000    -1.151819000000     1.007825032230
         H           -3.475365000000    -0.447640000000    -1.620254000000     1.007825032230
         O            0.031526000000     3.421465000000    -0.300243000000    15.994914619570
         H           -0.878325000000     3.780621000000    -0.011616000000     1.007825032230
         H            0.054833000000     2.497967000000    -0.083518000000     1.007825032230
         O            0.960104000000     0.920447000000    -2.955719000000    15.994914619570
         H            0.402808000000     0.917896000000    -2.160409000000     1.007825032230
         H            0.692381000000     1.632242000000    -3.631367000000     1.007825032230

  Charge       = 0
  Multiplicity = 1
  Basis Set: AUG-CC-PVTZ
    Blend: AUG-CC-PVTZ
  Basis Set: (AUG-CC-PVTZ AUX)
    Blend: AUG-CC-PVTZ-JKFIT

    Orbital Energies [Eh]
    ---------------------

    Doubly Occupied:

       1A    -20.586614     2A    -20.586357     3A    -20.578554
       4A    -20.575946     5A    -20.571913     6A     -1.365006
       7A     -1.362292     8A     -1.347842     9A     -1.342691
      10A     -1.333113    11A     -0.753186    12A     -0.742637
      13A     -0.720387    14A     -0.719218    15A     -0.714657
      16A     -0.591501    17A     -0.583051    18A     -0.581668
      19A     -0.578937    20A     -0.564383    21A     -0.528879
      22A     -0.526121    23A     -0.516033    24A     -0.513458
      25A     -0.506714

  @DF-RHF Final Energy:  -380.27066804512157

   => Energetics <=

    Nuclear Repulsion Energy =            169.9766232389725360
    One-Electron Energy =                -862.9122607299017318
    Two-Electron Energy =                 312.6649694458075714
    Total Energy =                       -380.2706680451215675
 Dipole X            :        122.8128593         -123.1475821           -0.3347229
 Dipole Y            :        -72.9717952           71.6625740           -1.3092212
 Dipole Z            :         95.4516615          -94.8962030            0.5554585
 Magnitude           :                                                    1.4610385

    SAPT Results
  --------------------------------------------------------------------------------------------------------
    Electrostatics                -89.64256069 [mEh]     -56.25155608 [kcal/mol]    -235.35651066 [kJ/mol]
      Elst10,r                    -89.21905214 [mEh]     -55.98580046 [kcal/mol]    -234.24458913 [kJ/mol]
      Elst12,r                     -0.42350854 [mEh]      -0.26575562 [kcal/mol]      -1.11192153 [kJ/mol]

    Exchange                       69.85100295 [mEh]      43.83216611 [kcal/mol]     183.39378298 [kJ/mol]
      Exch10                       62.05019172 [mEh]      38.93708316 [kcal/mol]     162.91275593 [kJ/mol]
      Exch10(S^2)                  61.41743713 [mEh]      38.54002365 [kcal/mol]     161.25145896 [kJ/mol]
      Exch11(S^2)                   2.85367487 [mEh]       1.79070802 [kcal/mol]       7.49232234 [kJ/mol]
      Exch12(S^2)                   4.94713636 [mEh]       3.10437493 [kcal/mol]      12.98870472 [kJ/mol]

    Induction                     -35.85811133 [mEh]     -22.50130457 [kcal/mol]     -94.14545832 [kJ/mol]
      Ind20,r                     -55.48325294 [mEh]     -34.81626685 [kcal/mol]    -145.67126052 [kJ/mol]
      Ind22                        -6.88191735 [mEh]      -4.31846834 [kcal/mol]     -18.06847151 [kJ/mol]
      Exch-Ind20,r                 32.15821462 [mEh]      20.17958433 [kcal/mol]      84.43138086 [kJ/mol]
      Exch-Ind22                    3.98877433 [mEh]       2.50299368 [kcal/mol]      10.47252557 [kJ/mol]
      delta HF,r (2)               -9.63992999 [mEh]      -6.04914740 [kcal/mol]     -25.30963271 [kJ/mol]

    Dispersion                    -26.25767891 [mEh]     -16.47694228 [kcal/mol]     -68.93952648 [kJ/mol]
      Disp20                      -29.78910679 [mEh]     -18.69294672 [kcal/mol]     -78.21128910 [kJ/mol]
      Disp21                        2.22066121 [mEh]       1.39348594 [kcal/mol]       5.83034519 [kJ/mol]
      Disp22 (SDQ)                  0.00201189 [mEh]       0.00126248 [kcal/mol]       0.00528221 [kJ/mol]
      Disp22 (T)                   -4.76520433 [mEh]      -2.99021086 [kcal/mol]     -12.51104223 [kJ/mol]
      Est. Disp22 (T)              -5.45118347 [mEh]      -3.42066927 [kcal/mol]     -14.31208023 [kJ/mol]
      Exch-Disp20                   6.75993825 [mEh]       4.24192530 [kcal/mol]      17.74821544 [kJ/mol]

  Total HF                        -60.13382873 [mEh]     -37.73454722 [kcal/mol]    -157.88134557 [kJ/mol]
  Total SAPT0                     -83.16299726 [mEh]     -52.18556865 [kcal/mol]    -218.34441923 [kJ/mol]
  Total SAPT2                     -78.67883760 [mEh]     -49.37171598 [kcal/mol]    -206.57125965 [kJ/mol]
  Total SAPT2+                    -81.90734797 [mEh]     -51.39763682 [kcal/mol]    -215.04771247 [kJ/mol]

  Special recipe for scaled SAPT0 (see Manual):
    Electrostatics sSAPT0         -89.21905214 [mEh]     -55.98580046 [kcal/mol]    -234.24458913 [kJ/mol]
    Exchange sSAPT0                62.05019172 [mEh]      38.93708316 [kcal/mol]     162.91275593 [kJ/mol]
    Induction sSAPT0              -31.96076083 [mEh]     -20.05568021 [kcal/mol]     -83.91296601 [kJ/mol]
    Dispersion sSAPT0             -22.81807533 [mEh]     -14.31855844 [kcal/mol]     -59.90884853 [kJ/mol]
  Total sSAPT0                    -81.94769658 [mEh]     -51.42295596 [kcal/mol]    -215.15364774 [kJ/mol]
  --------------------------------------------------------------------------------------------------------

*** Psi4 exiting successfully. Buy a developer a beer!
